                               Psi4 1.9.1 release

  ==> Input File <==

--------------------------------------------------------------------------
molecule {
1 1
C           0.000000           0.000000           0.000000
H           0.000000           0.000000           0.786421
}

set {
basis              cc-pvtz
reference          uks
maxiter            500
DAMPING_PERCENTAGE 1
E_CONVERGENCE      1.0E-8
D_CONVERGENCE      1.0E-8
DIIS_MAX_VECS      400
MBIS_MAXITER       8000
guess              read
}

E, wfn = energy('b3lyp', restart_file='last_wfn', return_wfn=True)
properties('b3lyp','MBIS_CHARGES', wfn=wfn)
wfn.to_file('last_wfn')
--------------------------------------------------------------------------

    Molecular point group: c2v
  Charge       = 1
  Multiplicity = 1
  Basis Set: CC-PVTZ
    Blend: CC-PVTZ
  Basis Set: (CC-PVTZ AUX)
    Blend: CC-PVTZ-JKFIT
  @DF-UKS Final Energy:   -37.96388214696787
    Total Energy =                        -37.9638821469678689
 Dipole X            :          0.0000000            0.0000000            0.0000000
 Dipole Y            :          0.0000000            0.0000000            0.0000000
 Dipole Z            :          0.0227298            0.6801251            0.7028548
 Magnitude           :                                                    0.7028548
    Molecular point group: c2v

    Geometry (in Angstrom), charge = 1, multiplicity = 1:

       Center              X                  Y                   Z               Mass
    ------------   -----------------  -----------------  -----------------  -----------------
         C            0.000000000000     0.000000000000    -0.060930614281    12.000000000000
         H            0.000000000000     0.000000000000     0.725490385719     1.007825032230

  Charge       = 1
  Multiplicity = 1
  Basis Set: CC-PVTZ
    Blend: CC-PVTZ
  Basis Set: (CC-PVTZ AUX)
    Blend: CC-PVTZ-JKFIT

    Orbital Energies [Eh]
    ---------------------

    Alpha Occupied:

       1A1   -10.789837     2A1    -1.185311     3A1    -0.744451

    Alpha Virtual:

       1B1    -0.563960     1B2    -0.563960     4A1    -0.175730
       2B2     0.003469     2B1     0.003469     5A1     0.005354
       6A1     0.060485     3B1     0.262234     3B2     0.262234
       7A1     0.278890     8A1     0.307304     1A2     0.307304
       9A1     0.683893     4B2     0.765984     4B1     0.765984
      10A1     1.467641     5B1     1.515713     5B2     1.515713
      11A1     1.519593    12A1     1.795386    13A1     2.156733
       2A2     2.156733     6B1     2.234676     6B2     2.234676
       7B2     2.276551     7B1     2.276551     3A2     2.459563
      14A1     2.459564     8B2     2.625136     8B1     2.625136
      15A1     2.636365    16A1     3.418059     4A2     3.563824
      17A1     3.563824     9B2     3.636749     9B1     3.636749
      10B2     5.144438    10B1     5.144438    18A1     5.182675
      19A1     5.535245    20A1    12.485262

    Beta Occupied:

       1A1   -10.789837     2A1    -1.185311     3A1    -0.744451

    Beta Virtual:

       1B1    -0.563960     1B2    -0.563960     4A1    -0.175730
       2B2     0.003469     2B1     0.003469     5A1     0.005354
       6A1     0.060485     3B1     0.262234     3B2     0.262234
       7A1     0.278890     8A1     0.307304     1A2     0.307304
       9A1     0.683893     4B2     0.765984     4B1     0.765984
      10A1     1.467641     5B1     1.515713     5B2     1.515713
      11A1     1.519593    12A1     1.795386    13A1     2.156733
       2A2     2.156733     6B1     2.234676     6B2     2.234676
       7B2     2.276551     7B1     2.276551     3A2     2.459563
      14A1     2.459564     8B2     2.625136     8B1     2.625136
      15A1     2.636365    16A1     3.418059     4A2     3.563824
      17A1     3.563824     9B2     3.636749     9B1     3.636749
      10B2     5.144438    10B1     5.144438    18A1     5.182675
      19A1     5.535245    20A1    12.485262

    Final Occupation by Irrep:
             A1    A2    B1    B2
    DOCC [     3,    0,    0,    0 ]
    SOCC [     0,    0,    0,    0 ]
    NA   [     3,    0,    0,    0 ]
    NB   [     3,    0,    0,    0 ]

  @DF-UKS Final Energy:   -37.96388214691919

   => Energetics <=

    Nuclear Repulsion Energy =              4.0373581885783825
    One-Electron Energy =                 -55.3903901087535786
    Two-Electron Energy =                  17.7800706349487072
    DFT Exchange-Correlation Energy =      -4.3909208616927016
    Empirical Dispersion Energy =           0.0000000000000000
    VV10 Nonlocal Energy =                  0.0000000000000000
    Total Energy =                        -37.9638821469191896

  UHF NO Occupations:
  HONO-2 :    1 A1 2.0000000
  HONO-1 :    2 A1 2.0000000
  HONO-0 :    3 A1 2.0000000
  LUNO+0 :    4 A1 0.0000000
  LUNO+1 :    5 A1 0.0000000
  LUNO+2 :    6 A1 0.0000000
  LUNO+3 :    7 A1 0.0000000

Computation Completed

Properties will be evaluated at   0.000000,   0.000000,   0.000000 [a0]

Properties computed using the B3LYP density matrix

 Multipole Moments:

 ------------------------------------------------------------------------------------
     Multipole            Electronic (a.u.)      Nuclear  (a.u.)        Total (a.u.)
 ------------------------------------------------------------------------------------

 L = 1.  Multiply by 2.5417464519 to convert [e a0] to [Debye]
 Dipole X            :          0.0000000            0.0000000            0.0000000
 Dipole Y            :          0.0000000            0.0000000            0.0000000
 Dipole Z            :          0.0227298            0.6801251            0.7028548
 Magnitude           :                                                    0.7028548

 L = 2.  Multiply by 1.3450342976 to convert [e a0^2] to [Debye ang]
 Quadrupole XX       :         -2.6813131            0.0000000           -2.6813131
 Quadrupole XY       :          0.0000000            0.0000000            0.0000000
 Quadrupole XZ       :          0.0000000            0.0000000            0.0000000
 Quadrupole YY       :         -2.6813131            0.0000000           -2.6813131
 Quadrupole YZ       :          0.0000000            0.0000000            0.0000000
 Quadrupole ZZ       :         -5.5131268            1.9591274           -3.5539994
 Traceless XX        :          0.9439379           -0.6530425            0.2908954
 Traceless YY        :          0.9439379           -0.6530425            0.2908954
 Traceless ZZ        :         -1.8878758            1.3060849           -0.5817908

 ------------------------------------------------------------------------------------
  ==> Computing MBIS Charges <==

  Electron Count from Grid (Expected Number):  6.00000 ( 6.00000)
  Difference: -0.00000

  MBIS Charges: (a.u.)
   Center  Symbol  Z      Pop.       Charge
      1       C    6    5.136150    0.863850
      2       H    1    0.863850    0.136150

  MBIS Dipoles: [e a0]
   Center  Symbol  Z        X           Y           Z
      1       C    6    0.000000   -0.000000    0.571351
      2       H    1   -0.000000   -0.000000    0.044311

  MBIS Quadrupoles: [e a0^2]
   Center  Symbol  Z      XX        XY        XZ        YY        YZ        ZZ
      1       C    6   -2.4189    0.0000    0.0000   -2.4189    0.0000   -3.5456
      2       H    1   -0.2624   -0.0000    0.0000   -0.2624   -0.0000   -0.2657

  MBIS Octupoles: [e a0^3]
   Center  Symbol  Z      XXX       XXY       XXZ       XYY       XYZ       XZZ       YYY       YYZ       YZZ       ZZZ
      1       C    6   -0.0000    0.0000    0.6658   -0.0000   -0.0000   -0.0000    0.0000    0.6658   -0.0000    1.6824
      2       H    1    0.0000    0.0000    0.0010    0.0000    0.0000    0.0000   -0.0000    0.0010    0.0000    0.0087

  MBIS Radial Moments:
   Center  Symbol  Z      [a0^2]      [a0^3]      [a0^4]
      1       C    6    8.383342   17.623602   44.142858
      2       H    1    0.790567    1.049181    1.664288

  MBIS Valence Widths: [a0]
   Center  Symbol  Z     Width
      1       C    6    0.451495
      2       H    1    0.282077

*** tstop() called on Mac.lan at Sun Aug 10 18:26:58 2025
Module time:
	user time   =       2.84 seconds =       0.05 minutes
	system time =       1.79 seconds =       0.03 minutes
	total time  =          0 seconds =       0.00 minutes
Total time:
	user time   =      10.79 seconds =       0.18 minutes
	system time =       4.26 seconds =       0.07 minutes
	total time  =          1 seconds =       0.02 minutes

    Psi4 stopped on: Sunday, 10 August 2025 06:26PM
    Psi4 wall time for execution: 0:00:01.47

*** Psi4 exiting successfully. Buy a developer a beer!
