                               Psi4 1.9.1 release

  ==> Input File <==

--------------------------------------------------------------------------
molecule {
1 4
C           0.000000           0.000000           0.000000
C           0.000000           0.000000           1.842191
}

set {
basis              cc-pvtz
reference          uks
maxiter            500
DAMPING_PERCENTAGE 1
E_CONVERGENCE      1.0E-8
D_CONVERGENCE      1.0E-8
DIIS_MAX_VECS      400
MBIS_MAXITER       8000
guess              read
}

E, wfn = energy('b3lyp', restart_file='last_wfn', return_wfn=True)
properties('b3lyp','MBIS_CHARGES', wfn=wfn)
wfn.to_file('last_wfn')
--------------------------------------------------------------------------

    Molecular point group: d2h
  Charge       = 1
  Multiplicity = 4
  Basis Set: CC-PVTZ
    Blend: CC-PVTZ
  Basis Set: (CC-PVTZ AUX)
    Blend: CC-PVTZ-JKFIT
  @DF-UKS Final Energy:   -75.44661055459352
    Total Energy =                        -75.4466105545935193
 Dipole X            :          0.0000000            0.0000000            0.0000000
 Dipole Y            :          0.0000000            0.0000000            0.0000000
 Dipole Z            :          0.0000000            0.0000000            0.0000000
 Magnitude           :                                                    0.0000000
    Molecular point group: d2h

    Geometry (in Angstrom), charge = 1, multiplicity = 4:

       Center              X                  Y                   Z               Mass
    ------------   -----------------  -----------------  -----------------  -----------------
         C            0.000000000000     0.000000000000    -0.921095500000    12.000000000000
         C            0.000000000000     0.000000000000     0.921095500000    12.000000000000

  Charge       = 1
  Multiplicity = 4
  Basis Set: CC-PVTZ
    Blend: CC-PVTZ
  Basis Set: (CC-PVTZ AUX)
    Blend: CC-PVTZ-JKFIT

    Orbital Energies [Eh]
    ---------------------

    Alpha Occupied:

       1Ag   -10.723839     1B1u  -10.723697     2Ag    -1.044313
       2B1u   -0.864638     3Ag    -0.670357     1B2u   -0.628562
       1B3u   -0.628562

    Alpha Virtual:

       1B2g   -0.477368     1B3g   -0.477368     3B1u   -0.317623
       4B1u    0.018201     2B2u    0.021801     2B3u    0.021801
       4Ag     0.047299     5Ag     0.059334     2B3g    0.094111
       2B2g    0.094111     3B3u    0.272453     3B2u    0.272453
       6Ag     0.276083     1B1g    0.276083     5B1u    0.333342
       6B1u    0.448045     1Au     0.448045     7Ag     0.647878
       3B3g    0.715247     3B2g    0.715247     7B1u    0.833375
       4B3u    1.510809     4B2u    1.510809     8Ag     1.551094
       4B2g    1.633776     4B3g    1.633776     8B1u    2.044413
       5B2u    2.063120     5B3u    2.063120     9Ag     2.074722
      10Ag     2.111816     2B1g    2.111816     6B2u    2.264106
       6B3u    2.264106     5B3g    2.328963     5B2g    2.328963
       9B1u    2.467755     2Au     2.467758    11Ag     2.510478
       3B1g    2.510487     6B3g    2.608435     6B2g    2.608435
       7B2u    2.637127     7B3u    2.637127    10B1u    2.643730
       3Au     2.643737    11B1u    2.692646    12Ag     3.015387
      12B1u    3.103409     7B3g    3.167236     7B2g    3.167236
      13Ag     3.600792    13B1u    4.795617

    Beta Occupied:

       1Ag   -10.699788     1B1u  -10.699775     2Ag    -0.951513
       2B1u   -0.754075

    Beta Virtual:

       3Ag    -0.505860     1B2u   -0.483186     1B3u   -0.483186
       1B2g   -0.379143     1B3g   -0.379143     3B1u   -0.232943
       4B1u    0.048486     2B2u    0.051447     2B3u    0.051447
       4Ag     0.083521     5Ag     0.086181     2B3g    0.116886
       2B2g    0.116886     1B1g    0.323572     6Ag     0.323572
       3B3u    0.329957     3B2u    0.329957     5B1u    0.362899
       1Au     0.492565     6B1u    0.492565     7Ag     0.707990
       3B3g    0.762452     3B2g    0.762452     7B1u    0.876994
       4B3u    1.566873     4B2u    1.566873     8Ag     1.610326
       4B2g    1.687940     4B3g    1.687940     8B1u    2.105746
       5B2u    2.124125     5B3u    2.124125     9Ag     2.135814
      10Ag     2.178894     2B1g    2.178895     6B2u    2.327218
       6B3u    2.327218     5B3g    2.391695     5B2g    2.391695
       9B1u    2.532118     2Au     2.532121    11Ag     2.590102
       3B1g    2.590110     6B3g    2.682296     6B2g    2.682296
       7B2u    2.721348     7B3u    2.721348    10B1u    2.723344
       3Au     2.723352    11B1u    2.769577    12Ag     3.087712
      12B1u    3.160636     7B3g    3.237831     7B2g    3.237831
      13Ag     3.655234    13B1u    4.843140

    Final Occupation by Irrep:
             Ag   B1g   B2g   B3g    Au   B1u   B2u   B3u
    DOCC [     2,    0,    0,    0,    0,    2,    0,    0 ]
    SOCC [     1,    0,    0,    0,    0,    0,    1,    1 ]
    NA   [     3,    0,    0,    0,    0,    2,    1,    1 ]
    NB   [     2,    0,    0,    0,    0,    2,    0,    0 ]

  @DF-UKS Final Energy:   -75.44661055632388

   => Energetics <=

    Nuclear Repulsion Energy =             10.3411533245575509
    One-Electron Energy =                -117.3078556790939189
    Two-Electron Energy =                  39.6637256499984403
    DFT Exchange-Correlation Energy =      -8.1436338517859532
    Empirical Dispersion Energy =           0.0000000000000000
    VV10 Nonlocal Energy =                  0.0000000000000000
    Total Energy =                        -75.4466105563238756

  UHF NO Occupations:
  HONO-2 :    1B2u 1.0000000
  HONO-1 :    1B3u 1.0000000
  HONO-0 :    3 Ag 1.0000000
  LUNO+0 :    3B1u 0.0020616
  LUNO+1 :    4 Ag 0.0001825
  LUNO+2 :    4B1u 0.0000008
  LUNO+3 :    5 Ag 0.0000006

Computation Completed

Properties will be evaluated at   0.000000,   0.000000,   0.000000 [a0]

Properties computed using the B3LYP density matrix

 Multipole Moments:

 ------------------------------------------------------------------------------------
     Multipole            Electronic (a.u.)      Nuclear  (a.u.)        Total (a.u.)
 ------------------------------------------------------------------------------------

 L = 1.  Multiply by 2.5417464519 to convert [e a0] to [Debye]
 Dipole X            :          0.0000000            0.0000000            0.0000000
 Dipole Y            :          0.0000000            0.0000000            0.0000000
 Dipole Z            :          0.0000000            0.0000000            0.0000000
 Magnitude           :                                                    0.0000000

 L = 2.  Multiply by 1.3450342976 to convert [e a0^2] to [Debye ang]
 Quadrupole XX       :         -6.9203046            0.0000000           -6.9203046
 Quadrupole XY       :          0.0000000            0.0000000            0.0000000
 Quadrupole XZ       :          0.0000000            0.0000000            0.0000000
 Quadrupole YY       :         -6.9203046            0.0000000           -6.9203046
 Quadrupole YZ       :          0.0000000            0.0000000            0.0000000
 Quadrupole ZZ       :        -39.5656031           36.3570219           -3.2085812
 Traceless XX        :         10.8817662          -12.1190073           -1.2372411
 Traceless YY        :         10.8817662          -12.1190073           -1.2372411
 Traceless ZZ        :        -21.7635323           24.2380146            2.4744823

 ------------------------------------------------------------------------------------
  ==> Computing MBIS Charges <==

  Electron Count from Grid (Expected Number): 11.00000 (11.00000)
  Difference: -0.00000

  MBIS Charges: (a.u.)
   Center  Symbol  Z      Pop.       Charge
      1       C    6    5.500000    0.500000
      2       C    6    5.500000    0.500000

  MBIS Dipoles: [e a0]
   Center  Symbol  Z        X           Y           Z
      1       C    6   -0.000000    0.000000   -0.187054
      2       C    6   -0.000000    0.000000    0.187054

  MBIS Quadrupoles: [e a0^2]
   Center  Symbol  Z      XX        XY        XZ        YY        YZ        ZZ
      1       C    6   -3.4602    0.0000    0.0000   -3.4602   -0.0000   -3.7703
      2       C    6   -3.4602    0.0000   -0.0000   -3.4602    0.0000   -3.7703

  MBIS Octupoles: [e a0^3]
   Center  Symbol  Z      XXX       XXY       XXZ       XYY       XYZ       XZZ       YYY       YYZ       YZZ       ZZZ
      1       C    6   -0.0000   -0.0000   -0.2936   -0.0000   -0.0000   -0.0000    0.0000   -0.2936    0.0000   -0.9513
      2       C    6   -0.0000   -0.0000    0.2936   -0.0000    0.0000   -0.0000    0.0000    0.2936    0.0000    0.9513

  MBIS Radial Moments:
   Center  Symbol  Z      [a0^2]      [a0^3]      [a0^4]
      1       C    6   10.690652   24.204075   65.222360
      2       C    6   10.690652   24.204075   65.222360

  MBIS Valence Widths: [a0]
   Center  Symbol  Z     Width
      1       C    6    0.487847
      2       C    6    0.487847

*** tstop() called on Mac.lan at Sun Aug 10 18:23:18 2025
Module time:
	user time   =       3.01 seconds =       0.05 minutes
	system time =       2.30 seconds =       0.04 minutes
	total time  =          0 seconds =       0.00 minutes
Total time:
	user time   =      14.67 seconds =       0.24 minutes
	system time =       4.60 seconds =       0.08 minutes
	total time  =          2 seconds =       0.03 minutes

    Psi4 stopped on: Sunday, 10 August 2025 06:23PM
    Psi4 wall time for execution: 0:00:01.88

*** Psi4 exiting successfully. Buy a developer a beer!
