                               Psi4 1.9.1 release

  ==> Input File <==

--------------------------------------------------------------------------
molecule {
1 2
O           0.000000           0.000000           0.000000
C           0.000000           0.000000           1.298010
}

set {
basis              cc-pvtz
reference          uks
maxiter            500
DAMPING_PERCENTAGE 1
E_CONVERGENCE      1.0E-8
D_CONVERGENCE      1.0E-8
DIIS_MAX_VECS      400
MBIS_MAXITER       8000
guess              read
}

E, wfn = energy('b3lyp', restart_file='last_wfn', return_wfn=True)
properties('b3lyp','MBIS_CHARGES', wfn=wfn)
wfn.to_file('last_wfn')
--------------------------------------------------------------------------

    Molecular point group: c2v
  Charge       = 1
  Multiplicity = 2
  Basis Set: CC-PVTZ
    Blend: CC-PVTZ
  Basis Set: (CC-PVTZ AUX)
    Blend: CC-PVTZ-JKFIT
  @DF-UKS Final Energy:  -112.78221181885027
    Total Energy =                       -112.7822118188502714
 Dipole X            :          0.0000000            0.0000000            0.0000000
 Dipole Y            :          0.0000000            0.0000000            0.0000000
 Dipole Z            :          1.1577073           -0.0026735            1.1550338
 Magnitude           :                                                    1.1550338
    Molecular point group: c2v

    Geometry (in Angstrom), charge = 1, multiplicity = 2:

       Center              X                  Y                   Z               Mass
    ------------   -----------------  -----------------  -----------------  -----------------
         O            0.000000000000     0.000000000000    -0.556391052149    15.994914619570
         C            0.000000000000     0.000000000000     0.741618947851    12.000000000000

  Charge       = 1
  Multiplicity = 2
  Basis Set: CC-PVTZ
    Blend: CC-PVTZ
  Basis Set: (CC-PVTZ AUX)
    Blend: CC-PVTZ-JKFIT

    Orbital Energies [Eh]
    ---------------------

    Alpha Occupied:

       1A1   -19.668645     2A1   -10.837153     3A1    -1.475729
       4A1    -0.992112     5A1    -0.851641     1B1    -0.804966
       1B2    -0.804966

    Alpha Virtual:

       2B1    -0.491811     2B2    -0.491811     6A1    -0.168244
       7A1    -0.014516     3B1    -0.001777     3B2    -0.001777
       8A1     0.030835     9A1     0.246658     1A2     0.288491
      10A1     0.288491     4B2     0.321792     4B1     0.321792
       5B2     0.438312     5B1     0.438312    11A1     0.720771
      12A1     0.866420    13A1     1.130880     2A2     1.130880
       6B1     1.373900     6B2     1.373900     7B2     1.614733
       7B1     1.614733    14A1     1.622794    15A1     1.784494
       8B2     2.226573     8B1     2.226573     3A2     2.322250
      16A1     2.322250     9B1     2.461797     9B2     2.461797
       4A2     2.464666    17A1     2.464667    18A1     2.655591
      10B2     2.724953    10B1     2.724953    19A1     2.757736
      11B2     3.490270    11B1     3.490270    20A1     3.536302
      12B1     4.710633    12B2     4.710633    21A1     4.906490
       5A2     4.906492    22A1     5.182694    13B1     5.400515
      13B2     5.400515    23A1     5.815754     6A2     5.815768
      24A1     5.933248    14B1     6.275461    14B2     6.275461
      25A1     6.671159    26A1     9.500933

    Beta Occupied:

       1A1   -19.667598     2A1   -10.814777     3A1    -1.464885
       4A1    -0.933232     1B1    -0.805264     1B2    -0.805264

    Beta Virtual:

       5A1    -0.659206     2B1    -0.454029     2B2    -0.454029
       6A1    -0.137178     3B1     0.008619     3B2     0.008619
       7A1     0.014263     8A1     0.071115     9A1     0.258150
       1A2     0.308524    10A1     0.308524     4B2     0.320245
       4B1     0.320245     5B2     0.471753     5B1     0.471753
      11A1     0.759896    12A1     0.871179    13A1     1.127261
       2A2     1.127261     6B1     1.397794     6B2     1.397794
       7B2     1.632818     7B1     1.632818    14A1     1.666444
      15A1     1.834445     8B2     2.259943     8B1     2.259943
       3A2     2.352373    16A1     2.352373     4A2     2.522268
      17A1     2.522268     9B2     2.524253     9B1     2.524253
      18A1     2.735834    10B2     2.776855    10B1     2.776855
      19A1     2.813740    11B2     3.494199    11B1     3.494199
      20A1     3.571147    12B1     4.696760    12B2     4.696760
      21A1     4.909579     5A2     4.909580    22A1     5.201302
      13B1     5.417894    13B2     5.417894    23A1     5.798774
       6A2     5.798788    24A1     5.963190    14B1     6.291168
      14B2     6.291168    25A1     6.691384    26A1     9.514359

    Final Occupation by Irrep:
             A1    A2    B1    B2
    DOCC [     4,    0,    1,    1 ]
    SOCC [     1,    0,    0,    0 ]
    NA   [     5,    0,    1,    1 ]
    NB   [     4,    0,    1,    1 ]

  @DF-UKS Final Energy:  -112.78221180962271

   => Energetics <=

    Nuclear Repulsion Energy =             19.5688061818938266
    One-Electron Energy =                -186.9966756856545089
    Two-Electron Energy =                  65.4523420025971774
    DFT Exchange-Correlation Energy =     -10.8066843084592037
    Empirical Dispersion Energy =           0.0000000000000000
    VV10 Nonlocal Energy =                  0.0000000000000000
    Total Energy =                       -112.7822118096227086

  UHF NO Occupations:
  HONO-2 :    1 B1 1.9936201
  HONO-1 :    1 B2 1.9936201
  HONO-0 :    5 A1 1.0000000
  LUNO+0 :    2 B1 0.0063799
  LUNO+1 :    2 B2 0.0063799
  LUNO+2 :    6 A1 0.0012355
  LUNO+3 :    7 A1 0.0000511

Computation Completed

Properties will be evaluated at   0.000000,   0.000000,   0.000000 [a0]

Properties computed using the B3LYP density matrix

 Multipole Moments:

 ------------------------------------------------------------------------------------
     Multipole            Electronic (a.u.)      Nuclear  (a.u.)        Total (a.u.)
 ------------------------------------------------------------------------------------

 L = 1.  Multiply by 2.5417464519 to convert [e a0] to [Debye]
 Dipole X            :          0.0000000            0.0000000            0.0000000
 Dipole Y            :          0.0000000            0.0000000            0.0000000
 Dipole Z            :          1.1577070           -0.0026735            1.1550336
 Magnitude           :                                                    1.1550336

 L = 2.  Multiply by 1.3450342976 to convert [e a0^2] to [Debye ang]
 Quadrupole XX       :         -6.2561490            0.0000000           -6.2561490
 Quadrupole XY       :          0.0000000            0.0000000            0.0000000
 Quadrupole XZ       :          0.0000000            0.0000000            0.0000000
 Quadrupole YY       :         -6.2561490            0.0000000           -6.2561490
 Quadrupole YZ       :          0.0000000            0.0000000            0.0000000
 Quadrupole ZZ       :        -24.0515919           20.6284703           -3.4231216
 Traceless XX        :          5.9318143           -6.8761568           -0.9443425
 Traceless YY        :          5.9318143           -6.8761568           -0.9443425
 Traceless ZZ        :        -11.8636286           13.7523135            1.8886849

 ------------------------------------------------------------------------------------
  ==> Computing MBIS Charges <==

  Electron Count from Grid (Expected Number): 13.00000 (13.00000)
  Difference: -0.00000

  MBIS Charges: (a.u.)
   Center  Symbol  Z      Pop.       Charge
      1       O    8    7.966107    0.033893
      2       C    6    5.033893    0.966107

  MBIS Dipoles: [e a0]
   Center  Symbol  Z        X           Y           Z
      1       O    8    0.000000    0.000000   -0.321010
      2       C    6    0.000000    0.000000    0.157722

  MBIS Quadrupoles: [e a0^2]
   Center  Symbol  Z      XX        XY        XZ        YY        YZ        ZZ
      1       O    8   -3.5526   -0.0000    0.0000   -3.5526    0.0000   -3.6098
      2       C    6   -2.7035   -0.0000    0.0000   -2.7035    0.0000   -2.8655

  MBIS Octupoles: [e a0^3]
   Center  Symbol  Z      XXX       XXY       XXZ       XYY       XYZ       XZZ       YYY       YYZ       YZZ       ZZZ
      1       O    8   -0.0000   -0.0000   -0.3022   -0.0000   -0.0000   -0.0000   -0.0000   -0.3022    0.0000   -0.8099
      2       C    6    0.0000    0.0000    0.2503    0.0000    0.0000    0.0000    0.0000    0.2503    0.0000    0.4237

  MBIS Radial Moments:
   Center  Symbol  Z      [a0^2]      [a0^3]      [a0^4]
      1       O    8   10.715035   19.371354   41.815237
      2       C    6    8.272486   17.475848   43.920805

  MBIS Valence Widths: [a0]
   Center  Symbol  Z     Width
      1       O    8    0.378002
      2       C    6    0.456363

*** tstop() called on Mac.lan at Sun Aug 10 18:38:04 2025
Module time:
	user time   =       4.11 seconds =       0.07 minutes
	system time =       2.66 seconds =       0.04 minutes
	total time  =          0 seconds =       0.00 minutes
Total time:
	user time   =      19.34 seconds =       0.32 minutes
	system time =       4.70 seconds =       0.08 minutes
	total time  =          2 seconds =       0.03 minutes

    Psi4 stopped on: Sunday, 10 August 2025 06:38PM
    Psi4 wall time for execution: 0:00:02.33

*** Psi4 exiting successfully. Buy a developer a beer!
