                               Psi4 1.9.1 release

  ==> Input File <==

--------------------------------------------------------------------------
molecule {
1 2
N           0.000000           0.000000           0.000000
N           0.000000           0.000000           1.332493
}

set {
basis              cc-pvtz
reference          uks
maxiter            500
DAMPING_PERCENTAGE 1
E_CONVERGENCE      1.0E-8
D_CONVERGENCE      1.0E-8
DIIS_MAX_VECS      400
MBIS_MAXITER       8000
guess              read
}

E, wfn = energy('b3lyp', restart_file='last_wfn', return_wfn=True)
properties('b3lyp','MBIS_CHARGES', wfn=wfn)
wfn.to_file('last_wfn')
--------------------------------------------------------------------------

    Molecular point group: d2h
  Charge       = 1
  Multiplicity = 2
  Basis Set: CC-PVTZ
    Blend: CC-PVTZ
  Basis Set: (CC-PVTZ AUX)
    Blend: CC-PVTZ-JKFIT
  @DF-UKS Final Energy:  -108.90983563221978
    Total Energy =                       -108.9098356322197816
 Dipole X            :          0.0000000            0.0000000            0.0000000
 Dipole Y            :          0.0000000            0.0000000            0.0000000
 Dipole Z            :          0.0000000           -0.0000000           -0.0000000
 Magnitude           :                                                    0.0000000
    Molecular point group: d2h

    Geometry (in Angstrom), charge = 1, multiplicity = 2:

       Center              X                  Y                   Z               Mass
    ------------   -----------------  -----------------  -----------------  -----------------
         N            0.000000000000     0.000000000000    -0.666246500000    14.003074004430
         N            0.000000000000     0.000000000000     0.666246500000    14.003074004430

  Charge       = 1
  Multiplicity = 2
  Basis Set: CC-PVTZ
    Blend: CC-PVTZ
  Basis Set: (CC-PVTZ AUX)
    Blend: CC-PVTZ-JKFIT

    Orbital Energies [Eh]
    ---------------------

    Alpha Occupied:

       1Ag   -14.947710     1B1u  -14.947322     2Ag    -1.429055
       2B1u   -1.055843     3Ag    -0.882887     1B3u   -0.809676
       1B2u   -0.809676

    Alpha Virtual:

       1B2g   -0.523919     1B3g   -0.523919     3B1u   -0.180541
       4B1u    0.091758     2B2u    0.101991     2B3u    0.101991
       4Ag     0.123023     5Ag     0.143511     2B2g    0.209962
       2B3g    0.209962     1B1g    0.505684     6Ag     0.505684
       5B1u    0.547625     3B2u    0.579142     3B3u    0.579142
       1Au     0.832036     6B1u    0.832036     7Ag     1.220047
       3B2g    1.242758     3B3g    1.242758     7B1u    1.271348
       4B2u    2.292603     4B3u    2.292603     8Ag     2.396873
       4B3g    2.517783     4B2g    2.517783     2B1g    3.050154
       9Ag     3.050154     5B2u    3.084294     5B3u    3.084294
       8B1u    3.167134    10Ag     3.226630     6B2u    3.322487
       6B3u    3.322487     5B3g    3.544538     5B2g    3.544538
       9B1u    3.829425    11Ag     3.908289     3B1g    3.908295
      10B1u    3.922966     2Au     3.922968     6B2g    4.124120
       6B3g    4.124120    11B1u    4.147974     3Au     4.147977
       7B3u    4.231674     7B2u    4.231674    12B1u    4.591730
      12Ag     4.843173    13Ag     5.119947     7B3g    5.133196
       7B2g    5.133196    13B1u    9.416294

    Beta Occupied:

       1Ag   -14.935112     1B1u  -14.934861     2Ag    -1.397936
       2B1u   -0.976065     1B3u   -0.797484     1B2u   -0.797484

    Beta Virtual:

       3Ag    -0.701975     1B2g   -0.505023     1B3g   -0.505023
       3B1u   -0.135997     2B2u    0.105824     2B3u    0.105824
       4B1u    0.134537     4Ag     0.150739     5Ag     0.158911
       2B2g    0.214414     2B3g    0.214414     1B1g    0.508536
       6Ag     0.508536     5B1u    0.557528     3B2u    0.609979
       3B3u    0.609979     6B1u    0.838720     1Au     0.838720
       7Ag     1.260181     3B2g    1.271560     3B3g    1.271560
       7B1u    1.312160     4B2u    2.305959     4B3u    2.305959
       8Ag     2.447830     4B3g    2.525528     4B2g    2.525528
       2B1g    3.075973     9Ag     3.075974     5B2u    3.114578
       5B3u    3.114578     8B1u    3.212347    10Ag     3.282337
       6B2u    3.326302     6B3u    3.326302     5B3g    3.548469
       5B2g    3.548469     9B1u    3.887879    11Ag     3.916287
       3B1g    3.916293    10B1u    3.923710     2Au     3.923712
       6B2g    4.175818     6B3g    4.175818    11B1u    4.179448
       3Au     4.179450     7B3u    4.287513     7B2u    4.287513
      12B1u    4.653438    12Ag     4.873050     7B3g    5.173459
       7B2g    5.173459    13Ag     5.180341    13B1u    9.438658

    Final Occupation by Irrep:
             Ag   B1g   B2g   B3g    Au   B1u   B2u   B3u
    DOCC [     2,    0,    0,    0,    0,    2,    1,    1 ]
    SOCC [     1,    0,    0,    0,    0,    0,    0,    0 ]
    NA   [     3,    0,    0,    0,    0,    2,    1,    1 ]
    NB   [     2,    0,    0,    0,    0,    2,    1,    1 ]

  @DF-UKS Final Energy:  -108.90983563224140

   => Energetics <=

    Nuclear Repulsion Energy =             19.4595268589253401
    One-Electron Energy =                -180.4033816801388355
    Two-Electron Energy =                  62.6027839220187161
    DFT Exchange-Correlation Energy =     -10.5687647330465992
    Empirical Dispersion Energy =           0.0000000000000000
    VV10 Nonlocal Energy =                  0.0000000000000000
    Total Energy =                       -108.9098356322413963

  UHF NO Occupations:
  HONO-2 :    2 Ag 1.9998365
  HONO-1 :    2B1u 1.9968231
  HONO-0 :    3 Ag 1.0000000
  LUNO+0 :    3B1u 0.0031769
  LUNO+1 :    4 Ag 0.0001635
  LUNO+2 :    2B2u 0.0001063
  LUNO+3 :    2B3u 0.0001063

Computation Completed

Properties will be evaluated at   0.000000,   0.000000,   0.000000 [a0]

Properties computed using the B3LYP density matrix

 Multipole Moments:

 ------------------------------------------------------------------------------------
     Multipole            Electronic (a.u.)      Nuclear  (a.u.)        Total (a.u.)
 ------------------------------------------------------------------------------------

 L = 1.  Multiply by 2.5417464519 to convert [e a0] to [Debye]
 Dipole X            :          0.0000000            0.0000000            0.0000000
 Dipole Y            :          0.0000000            0.0000000            0.0000000
 Dipole Z            :          0.0000000           -0.0000000           -0.0000000
 Magnitude           :                                                    0.0000000

 L = 2.  Multiply by 1.3450342976 to convert [e a0^2] to [Debye ang]
 Quadrupole XX       :         -6.5981586            0.0000000           -6.5981586
 Quadrupole XY       :          0.0000000            0.0000000            0.0000000
 Quadrupole XZ       :          0.0000000            0.0000000            0.0000000
 Quadrupole YY       :         -6.5981586            0.0000000           -6.5981586
 Quadrupole YZ       :          0.0000000            0.0000000            0.0000000
 Quadrupole ZZ       :        -25.8177309           22.1919595           -3.6257714
 Traceless XX        :          6.4065241           -7.3973198           -0.9907957
 Traceless YY        :          6.4065241           -7.3973198           -0.9907957
 Traceless ZZ        :        -12.8130483           14.7946397            1.9815914

 ------------------------------------------------------------------------------------
  ==> Computing MBIS Charges <==

  Electron Count from Grid (Expected Number): 13.00000 (13.00000)
  Difference:  0.00000

  MBIS Charges: (a.u.)
   Center  Symbol  Z      Pop.       Charge
      1       N    7    6.500000    0.500000
      2       N    7    6.500000    0.500000

  MBIS Dipoles: [e a0]
   Center  Symbol  Z        X           Y           Z
      1       N    7   -0.000000   -0.000000   -0.275880
      2       N    7    0.000000    0.000000    0.275880

  MBIS Quadrupoles: [e a0^2]
   Center  Symbol  Z      XX        XY        XZ        YY        YZ        ZZ
      1       N    7   -3.2991    0.0000   -0.0000   -3.2991   -0.0000   -3.3001
      2       N    7   -3.2991    0.0000    0.0000   -3.2991   -0.0000   -3.3001

  MBIS Octupoles: [e a0^3]
   Center  Symbol  Z      XXX       XXY       XXZ       XYY       XYZ       XZZ       YYY       YYZ       YZZ       ZZZ
      1       N    7   -0.0000   -0.0000   -0.3247    0.0000    0.0000    0.0000   -0.0000   -0.3247   -0.0000   -0.8260
      2       N    7    0.0000   -0.0000    0.3247   -0.0000   -0.0000    0.0000   -0.0000    0.3247   -0.0000    0.8260

  MBIS Radial Moments:
   Center  Symbol  Z      [a0^2]      [a0^3]      [a0^4]
      1       N    7    9.898292   19.379566   45.219801
      2       N    7    9.898292   19.379566   45.219801

  MBIS Valence Widths: [a0]
   Center  Symbol  Z     Width
      1       N    7    0.415767
      2       N    7    0.415767

*** tstop() called on Mac.lan at Sun Aug 10 18:25:25 2025
Module time:
	user time   =       3.46 seconds =       0.06 minutes
	system time =       2.44 seconds =       0.04 minutes
	total time  =          1 seconds =       0.02 minutes
Total time:
	user time   =      15.31 seconds =       0.26 minutes
	system time =       4.64 seconds =       0.08 minutes
	total time  =          2 seconds =       0.03 minutes

    Psi4 stopped on: Sunday, 10 August 2025 06:25PM
    Psi4 wall time for execution: 0:00:01.95

*** Psi4 exiting successfully. Buy a developer a beer!
