                               Psi4 1.9.1 release

  ==> Input File <==

--------------------------------------------------------------------------
molecule {
1 2
H           0.000000           0.000000           0.000000
H           0.000000           0.000000           1.384258
}

set {
basis              cc-pvtz
reference          uks
maxiter            500
DAMPING_PERCENTAGE 1
E_CONVERGENCE      1.0E-8
D_CONVERGENCE      1.0E-8
DIIS_MAX_VECS      400
MBIS_MAXITER       8000
guess              read
}

E, wfn = energy('b3lyp', restart_file='last_wfn', return_wfn=True)
properties('b3lyp','MBIS_CHARGES', wfn=wfn)
wfn.to_file('last_wfn')
--------------------------------------------------------------------------

    Molecular point group: d2h
  Charge       = 1
  Multiplicity = 2
  Basis Set: CC-PVTZ
    Blend: CC-PVTZ
  Basis Set: (CC-PVTZ AUX)
    Blend: CC-PVTZ-JKFIT
  @DF-UKS Final Energy:    -0.60369480406885
    Total Energy =                         -0.6036948040688466
 Dipole X            :          0.0000000            0.0000000            0.0000000
 Dipole Y            :          0.0000000            0.0000000            0.0000000
 Dipole Z            :          0.0000000            0.0000000            0.0000000
 Magnitude           :                                                    0.0000000
    Molecular point group: d2h

    Geometry (in Angstrom), charge = 1, multiplicity = 2:

       Center              X                  Y                   Z               Mass
    ------------   -----------------  -----------------  -----------------  -----------------
         H            0.000000000000     0.000000000000    -0.692129000000     1.007825032230
         H            0.000000000000     0.000000000000     0.692129000000     1.007825032230

  Charge       = 1
  Multiplicity = 2
  Basis Set: CC-PVTZ
    Blend: CC-PVTZ
  Basis Set: (CC-PVTZ AUX)
    Blend: CC-PVTZ-JKFIT

    Orbital Energies [Eh]
    ---------------------

    Alpha Occupied:

       1Ag    -0.820030

    Alpha Virtual:

       1B1u   -0.494005     2Ag    -0.062565     2B1u    0.016374
       1B3u    0.093663     1B2u    0.093663     3Ag     0.262365
       1B2g    0.401766     1B3g    0.401766     3B1u    0.805295
       4Ag     1.757300     4B1u    1.911978     5Ag     2.338029
       2B3u    2.380445     2B2u    2.380445     1B1g    2.632678
       6Ag     2.632678     1Au     2.834291     5B1u    2.834292
       2B2g    3.071308     2B3g    3.071308     3B3u    3.073984
       3B2u    3.073984     6B1u    3.251907     3B3g    3.444586
       3B2g    3.444586     7Ag     3.578582     7B1u    4.549428

    Beta Occupied:

    Beta Virtual:

       1Ag    -0.506978     1B1u   -0.283356     2Ag     0.030824
       2B1u    0.124535     1B3u    0.228613     1B2u    0.228613
       3Ag     0.411680     1B2g    0.522978     1B3g    0.522978
       3B1u    0.933893     4Ag     2.070161     4B1u    2.202100
       5Ag     2.558562     2B3u    2.572552     2B2u    2.572552
       1B1g    2.816177     6Ag     2.816177     1Au     3.017472
       5B1u    3.017473     2B2g    3.319842     2B3g    3.319842
       3B3u    3.326267     3B2u    3.326267     6B1u    3.508642
       3B2g    3.640746     3B3g    3.640746     7Ag     3.817968
       7B1u    4.763585

    Final Occupation by Irrep:
             Ag   B1g   B2g   B3g    Au   B1u   B2u   B3u
    DOCC [     0,    0,    0,    0,    0,    0,    0,    0 ]
    SOCC [     1,    0,    0,    0,    0,    0,    0,    0 ]
    NA   [     1,    0,    0,    0,    0,    0,    0,    0 ]
    NB   [     0,    0,    0,    0,    0,    0,    0,    0 ]

  @DF-UKS Final Energy:    -0.60369480403894

   => Energetics <=

    Nuclear Repulsion Energy =              0.3822822123260259
    One-Electron Energy =                  -0.9704497544229906
    Two-Electron Energy =                   0.2313815570511848
    DFT Exchange-Correlation Energy =      -0.2469088189931616
    Empirical Dispersion Energy =           0.0000000000000000
    VV10 Nonlocal Energy =                  0.0000000000000000
    Total Energy =                         -0.6036948040389415

  UHF NO Occupations:
  HONO-0 :    1 Ag 1.0000000
  LUNO+0 :    2 Ag 0.0000000
  LUNO+1 :    3 Ag 0.0000000
  LUNO+2 :    4 Ag 0.0000000
  LUNO+3 :    5 Ag 0.0000000

Computation Completed

Properties will be evaluated at   0.000000,   0.000000,   0.000000 [a0]

Properties computed using the B3LYP density matrix

 Multipole Moments:

 ------------------------------------------------------------------------------------
     Multipole            Electronic (a.u.)      Nuclear  (a.u.)        Total (a.u.)
 ------------------------------------------------------------------------------------

 L = 1.  Multiply by 2.5417464519 to convert [e a0] to [Debye]
 Dipole X            :          0.0000000            0.0000000            0.0000000
 Dipole Y            :          0.0000000            0.0000000            0.0000000
 Dipole Z            :          0.0000000            0.0000000            0.0000000
 Magnitude           :                                                    0.0000000

 L = 2.  Multiply by 1.3450342976 to convert [e a0^2] to [Debye ang]
 Quadrupole XX       :         -0.7248785            0.0000000           -0.7248785
 Quadrupole XY       :          0.0000000            0.0000000            0.0000000
 Quadrupole XZ       :          0.0000000            0.0000000            0.0000000
 Quadrupole YY       :         -0.7248785            0.0000000           -0.7248785
 Quadrupole YZ       :          0.0000000            0.0000000            0.0000000
 Quadrupole ZZ       :         -1.7780349            3.4213840            1.6433491
 Traceless XX        :          0.3510521           -1.1404613           -0.7894092
 Traceless YY        :          0.3510521           -1.1404613           -0.7894092
 Traceless ZZ        :         -0.7021043            2.2809227            1.5788184

 ------------------------------------------------------------------------------------
  ==> Computing MBIS Charges <==

  Electron Count from Grid (Expected Number):  1.00000 ( 1.00000)
  Difference:  0.00000

  MBIS Charges: (a.u.)
   Center  Symbol  Z      Pop.       Charge
      1       H    1    0.500000    0.500000
      2       H    1    0.500000    0.500000

  MBIS Dipoles: [e a0]
   Center  Symbol  Z        X           Y           Z
      1       H    1    0.000000   -0.000000   -0.130241
      2       H    1    0.000000    0.000000    0.130241

  MBIS Quadrupoles: [e a0^2]
   Center  Symbol  Z      XX        XY        XZ        YY        YZ        ZZ
      1       H    1   -0.3624    0.0000   -0.0000   -0.3624   -0.0000   -0.3744
      2       H    1   -0.3624    0.0000    0.0000   -0.3624    0.0000   -0.3744

  MBIS Octupoles: [e a0^3]
   Center  Symbol  Z      XXX       XXY       XXZ       XYY       XYZ       XZZ       YYY       YYZ       YZZ       ZZZ
      1       H    1    0.0000   -0.0000   -0.1024    0.0000   -0.0000    0.0000   -0.0000   -0.1024    0.0000   -0.2349
      2       H    1    0.0000   -0.0000    0.1024    0.0000    0.0000    0.0000    0.0000    0.1024    0.0000    0.2349

  MBIS Radial Moments:
   Center  Symbol  Z      [a0^2]      [a0^3]      [a0^4]
      1       H    1    1.099244    2.256544    5.491300
      2       H    1    1.099244    2.256544    5.491300

  MBIS Valence Widths: [a0]
   Center  Symbol  Z     Width
      1       H    1    0.435630
      2       H    1    0.435630

*** tstop() called on Mac.lan at Sun Aug 10 18:11:46 2025
Module time:
	user time   =       0.53 seconds =       0.01 minutes
	system time =       1.31 seconds =       0.02 minutes
	total time  =          1 seconds =       0.02 minutes
Total time:
	user time   =       1.72 seconds =       0.03 minutes
	system time =       2.92 seconds =       0.05 minutes
	total time  =          1 seconds =       0.02 minutes

    Psi4 stopped on: Sunday, 10 August 2025 06:11PM
    Psi4 wall time for execution: 0:00:00.60

*** Psi4 exiting successfully. Buy a developer a beer!
