                               Psi4 1.9.1 release

  ==> Input File <==

--------------------------------------------------------------------------
molecule {
1 2
N           0.000000           0.000000           0.000000
N           0.000000           0.000000           0.946949
}

set {
basis              cc-pvtz
reference          uks
maxiter            500
DAMPING_PERCENTAGE 1
E_CONVERGENCE      1.0E-8
D_CONVERGENCE      1.0E-8
DIIS_MAX_VECS      400
MBIS_MAXITER       8000
guess              read
}

E, wfn = energy('b3lyp', restart_file='last_wfn', return_wfn=True)
properties('b3lyp','MBIS_CHARGES', wfn=wfn)
wfn.to_file('last_wfn')
--------------------------------------------------------------------------

    Molecular point group: d2h
  Charge       = 1
  Multiplicity = 2
  Basis Set: CC-PVTZ
    Blend: CC-PVTZ
  Basis Set: (CC-PVTZ AUX)
    Blend: CC-PVTZ-JKFIT
  @DF-UKS Final Energy:  -108.89206002233669
    Total Energy =                       -108.8920600223366932
 Dipole X            :          0.0000000            0.0000000            0.0000000
 Dipole Y            :          0.0000000            0.0000000            0.0000000
 Dipole Z            :          0.0000000            0.0000000            0.0000000
 Magnitude           :                                                    0.0000000
    Molecular point group: d2h

    Geometry (in Angstrom), charge = 1, multiplicity = 2:

       Center              X                  Y                   Z               Mass
    ------------   -----------------  -----------------  -----------------  -----------------
         N            0.000000000000     0.000000000000    -0.473474500000    14.003074004430
         N            0.000000000000     0.000000000000     0.473474500000    14.003074004430

  Charge       = 1
  Multiplicity = 2
  Basis Set: CC-PVTZ
    Blend: CC-PVTZ
  Basis Set: (CC-PVTZ AUX)
    Blend: CC-PVTZ-JKFIT

    Orbital Energies [Eh]
    ---------------------

    Alpha Occupied:

       1Ag   -14.889134     1B1u  -14.881861     2Ag    -1.680623
       2B1u   -0.983231     1B3u   -0.962593     1B2u   -0.962593
       3Ag    -0.923449

    Alpha Virtual:

       1B2g   -0.368926     1B3g   -0.368926     3B1u    0.019634
       2B2u    0.051358     2B3u    0.051358     4Ag     0.086333
       5Ag     0.129152     2B3g    0.236222     2B2g    0.236222
       4B1u    0.419942     6Ag     0.450577     1B1g    0.450577
       5B1u    0.694727     3B2u    0.789228     3B3u    0.789228
       6B1u    0.948226     1Au     0.948226     7Ag     1.252109
       3B3g    1.322240     3B2g    1.322240     7B1u    1.840366
       4B2u    2.275275     4B3u    2.275275     8Ag     2.596883
       4B3g    2.808582     4B2g    2.808582     8B1u    2.896853
       9Ag     3.091130     2B1g    3.091130     5B2u    3.107220
       5B3u    3.107220     6B2u    3.286619     6B3u    3.286619
      10Ag     3.615065     5B3g    3.789089     5B2g    3.789089
       6B3g    3.869729     6B2g    3.869729    11Ag     3.935618
       3B1g    3.935619     9B1u    4.035863     2Au     4.035864
      12Ag     4.445770    10B1u    4.533940     7B3u    4.757142
       7B2u    4.757142    11B1u    4.851004     3Au     4.851005
      12B1u    5.758425     7B2g    6.618152     7B3g    6.618152
      13Ag     7.176295    13B1u   21.189392

    Beta Occupied:

       1Ag   -14.875267     1B1u  -14.868515     2Ag    -1.650165
       1B3u   -0.948648     1B2u   -0.948648     2B1u   -0.887802

    Beta Virtual:

       3Ag    -0.743399     1B2g   -0.342913     1B3g   -0.342913
       3B1u    0.031393     2B2u    0.055788     2B3u    0.055788
       4Ag     0.102617     5Ag     0.158674     2B3g    0.242988
       2B2g    0.242988     6Ag     0.455798     1B1g    0.455798
       4B1u    0.458879     5B1u    0.715627     3B2u    0.821773
       3B3u    0.821773     6B1u    0.960693     1Au     0.960693
       7Ag     1.291023     3B3g    1.345463     3B2g    1.345463
       7B1u    1.884427     4B2u    2.285659     4B3u    2.285659
       8Ag     2.628460     4B3g    2.818862     4B2g    2.818862
       8B1u    2.942845     2B1g    3.102960     9Ag     3.102960
       5B2u    3.113453     5B3u    3.113453     6B2u    3.326901
       6B3u    3.326901    10Ag     3.695273     5B3g    3.799137
       5B2g    3.799137     6B3g    3.931216     6B2g    3.931216
      11Ag     3.959990     3B1g    3.959990     9B1u    4.059956
       2Au     4.059956    12Ag     4.485570    10B1u    4.585882
       7B3u    4.808132     7B2u    4.808132    11B1u    4.870384
       3Au     4.870384    12B1u    5.818287     7B2g    6.653368
       7B3g    6.653368    13Ag     7.204167    13B1u   21.209979

    Final Occupation by Irrep:
             Ag   B1g   B2g   B3g    Au   B1u   B2u   B3u
    DOCC [     2,    0,    0,    0,    0,    2,    1,    1 ]
    SOCC [     1,    0,    0,    0,    0,    0,    0,    0 ]
    NA   [     3,    0,    0,    0,    0,    2,    1,    1 ]
    NB   [     2,    0,    0,    0,    0,    2,    1,    1 ]

  @DF-UKS Final Energy:  -108.89206002237917

   => Energetics <=

    Nuclear Repulsion Energy =             27.3823440574201946
    One-Electron Energy =                -195.2297682385598989
    Two-Electron Energy =                  69.8792158413010895
    DFT Exchange-Correlation Energy =     -10.9238516825405618
    Empirical Dispersion Energy =           0.0000000000000000
    VV10 Nonlocal Energy =                  0.0000000000000000
    Total Energy =                       -108.8920600223791695

  UHF NO Occupations:
  HONO-2 :    2 Ag 1.9999143
  HONO-1 :    2B1u 1.9989330
  HONO-0 :    3 Ag 1.0000000
  LUNO+0 :    3B1u 0.0010670
  LUNO+1 :    4 Ag 0.0000857
  LUNO+2 :    2B3u 0.0000716
  LUNO+3 :    2B2u 0.0000716

Computation Completed

Properties will be evaluated at   0.000000,   0.000000,   0.000000 [a0]

Properties computed using the B3LYP density matrix

 Multipole Moments:

 ------------------------------------------------------------------------------------
     Multipole            Electronic (a.u.)      Nuclear  (a.u.)        Total (a.u.)
 ------------------------------------------------------------------------------------

 L = 1.  Multiply by 2.5417464519 to convert [e a0] to [Debye]
 Dipole X            :          0.0000000            0.0000000            0.0000000
 Dipole Y            :          0.0000000            0.0000000            0.0000000
 Dipole Z            :          0.0000000            0.0000000            0.0000000
 Magnitude           :                                                    0.0000000

 L = 2.  Multiply by 1.3450342976 to convert [e a0^2] to [Debye ang]
 Quadrupole XX       :         -5.7908431            0.0000000           -5.7908431
 Quadrupole XY       :          0.0000000            0.0000000            0.0000000
 Quadrupole XZ       :          0.0000000            0.0000000            0.0000000
 Quadrupole YY       :         -5.7908431            0.0000000           -5.7908431
 Quadrupole YZ       :          0.0000000            0.0000000            0.0000000
 Quadrupole ZZ       :        -15.9682827           11.2077635           -4.7605192
 Traceless XX        :          3.3924798           -3.7359212           -0.3434413
 Traceless YY        :          3.3924798           -3.7359212           -0.3434413
 Traceless ZZ        :         -6.7849597            7.4718423            0.6868827

 ------------------------------------------------------------------------------------
  ==> Computing MBIS Charges <==

  Electron Count from Grid (Expected Number): 13.00000 (13.00000)
  Difference: -0.00000

  MBIS Charges: (a.u.)
   Center  Symbol  Z      Pop.       Charge
      1       N    7    6.500000    0.500000
      2       N    7    6.500000    0.500000

  MBIS Dipoles: [e a0]
   Center  Symbol  Z        X           Y           Z
      1       N    7    0.000000   -0.000000   -0.176902
      2       N    7    0.000000   -0.000000    0.176902

  MBIS Quadrupoles: [e a0^2]
   Center  Symbol  Z      XX        XY        XZ        YY        YZ        ZZ
      1       N    7   -2.8954   -0.0000   -0.0000   -2.8954    0.0000   -3.0971
      2       N    7   -2.8954   -0.0000    0.0000   -2.8954    0.0000   -3.0971

  MBIS Octupoles: [e a0^3]
   Center  Symbol  Z      XXX       XXY       XXZ       XYY       XYZ       XZZ       YYY       YYZ       YZZ       ZZZ
      1       N    7    0.0000    0.0000   -0.1060    0.0000    0.0000    0.0000   -0.0000   -0.1060   -0.0000   -0.1846
      2       N    7    0.0000    0.0000    0.1060    0.0000   -0.0000    0.0000   -0.0000    0.1060    0.0000    0.1846

  MBIS Radial Moments:
   Center  Symbol  Z      [a0^2]      [a0^3]      [a0^4]
      1       N    7    8.887941   16.426486   36.271280
      2       N    7    8.887941   16.426486   36.271280

  MBIS Valence Widths: [a0]
   Center  Symbol  Z     Width
      1       N    7    0.391894
      2       N    7    0.391894

*** tstop() called on Mac.lan at Sun Aug 10 18:24:24 2025
Module time:
	user time   =       3.75 seconds =       0.06 minutes
	system time =       2.35 seconds =       0.04 minutes
	total time  =          1 seconds =       0.02 minutes
Total time:
	user time   =      16.37 seconds =       0.27 minutes
	system time =       4.51 seconds =       0.08 minutes
	total time  =          2 seconds =       0.03 minutes

    Psi4 stopped on: Sunday, 10 August 2025 06:24PM
    Psi4 wall time for execution: 0:00:02.04

*** Psi4 exiting successfully. Buy a developer a beer!
