                               Psi4 1.9.1 release

  ==> Input File <==

--------------------------------------------------------------------------
molecule {
1 3
N           0.000000           0.000000           0.000000
C           0.000000           0.000000           0.874661
}

set {
basis              cc-pvtz
reference          uks
maxiter            500
DAMPING_PERCENTAGE 1
E_CONVERGENCE      1.0E-8
D_CONVERGENCE      1.0E-8
DIIS_MAX_VECS      400
MBIS_MAXITER       8000
guess              read
}

E, wfn = energy('b3lyp', restart_file='last_wfn', return_wfn=True)
properties('b3lyp','MBIS_CHARGES', wfn=wfn)
wfn.to_file('last_wfn')
--------------------------------------------------------------------------

    Molecular point group: c2v
  Charge       = 1
  Multiplicity = 3
  Basis Set: CC-PVTZ
    Blend: CC-PVTZ
  Basis Set: (CC-PVTZ AUX)
    Blend: CC-PVTZ-JKFIT
  @DF-UKS Final Energy:   -91.79127113921027
    Total Energy =                        -91.7912711392102665
 Dipole X            :          0.0000000            0.0000000            0.0000000
 Dipole Y            :          0.0000000            0.0000000            0.0000000
 Dipole Z            :          0.8959352            0.0011724            0.8971076
 Magnitude           :                                                    0.8971076
    Molecular point group: c2v

    Geometry (in Angstrom), charge = 1, multiplicity = 3:

       Center              X                  Y                   Z               Mass
    ------------   -----------------  -----------------  -----------------  -----------------
         N            0.000000000000     0.000000000000    -0.403641969338    14.003074004430
         C            0.000000000000     0.000000000000     0.471019030662    12.000000000000

  Charge       = 1
  Multiplicity = 3
  Basis Set: CC-PVTZ
    Blend: CC-PVTZ
  Basis Set: (CC-PVTZ AUX)
    Blend: CC-PVTZ-JKFIT

    Orbital Energies [Eh]
    ---------------------

    Alpha Occupied:

       1A1   -14.781193     2A1   -10.729977     3A1    -1.549692
       1B1    -0.985569     1B2    -0.931999     4A1    -0.870827
       5A1    -0.796929

    Alpha Virtual:

       2B1    -0.299694     2B2    -0.267446     6A1    -0.094554
       3B1    -0.043970     3B2    -0.031050     7A1    -0.026628
       8A1     0.154745     4B1     0.222018     1A2     0.235968
       9A1     0.236572     4B2     0.238033    10A1     0.468726
       5B1     0.573192     5B2     0.594940    11A1     0.664466
       2A2     0.868674    12A1     0.869756    13A1     1.183308
       6B1     1.199337     6B2     1.221780     7B1     1.440496
       7B2     1.470047    14A1     1.690680    15A1     1.989916
       8B1     2.157835     8B2     2.158173    16A1     2.331617
       3A2     2.331958    17A1     2.424559     9B1     2.438711
       9B2     2.464144     4A2     2.527844    18A1     2.530677
      10B1     2.785992    10B2     2.828498    19A1     2.890725
      11B1     3.181602    11B2     3.215171    12B1     3.624226
      12B2     3.624384    20A1     4.090198     5A2     4.091022
      21A1     4.189616    13B1     4.593397     6A2     4.619524
      22A1     4.620042    13B2     4.626735    23A1     5.126828
      24A1     5.494430    14B1     5.826751    14B2     5.864907
      25A1     7.373903    26A1    16.548528

    Beta Occupied:

       1A1   -14.767369     2A1   -10.697191     3A1    -1.476304
       1B2    -0.902397     4A1    -0.777344

    Beta Virtual:

       1B1    -0.771633     5A1    -0.603556     2B2    -0.226487
       2B1    -0.201270     6A1    -0.077685     3B2    -0.020918
       3B1    -0.011935     7A1     0.018250     8A1     0.172828
       4B2     0.246848     4B1     0.257642     1A2     0.273210
       9A1     0.277707    10A1     0.533396     5B2     0.625877
       5B1     0.634813    11A1     0.686100     2A2     0.894746
      12A1     0.898176     6B2     1.231820     6B1     1.236563
      13A1     1.247084     7B2     1.500550     7B1     1.512886
      14A1     1.753861    15A1     2.057618     8B2     2.215117
       8B1     2.218236     3A2     2.394358    16A1     2.400021
      17A1     2.502136     9B2     2.560724     9B1     2.590454
       4A2     2.619156    18A1     2.632719    10B2     2.843885
      10B1     2.857692    19A1     2.997359    11B2     3.253073
      11B1     3.267475    12B2     3.664414    12B1     3.665997
       5A2     4.132222    20A1     4.137790    21A1     4.225777
      13B2     4.638099    13B1     4.642322     6A2     4.664156
      22A1     4.669943    23A1     5.154345    24A1     5.545803
      14B2     5.900326    14B1     5.917061    25A1     7.415606
      26A1    16.594662

    Final Occupation by Irrep:
             A1    A2    B1    B2
    DOCC [     4,    0,    0,    1 ]
    SOCC [     1,    0,    1,    0 ]
    NA   [     5,    0,    1,    1 ]
    NB   [     4,    0,    0,    1 ]

  @DF-UKS Final Energy:   -91.79127113937294

   => Energetics <=

    Nuclear Repulsion Energy =             25.4103508080730691
    One-Electron Energy =                -168.0105352355482182
    Two-Electron Energy =                  60.7144107588549957
    DFT Exchange-Correlation Energy =      -9.9054974707527936
    Empirical Dispersion Energy =           0.0000000000000000
    VV10 Nonlocal Energy =                  0.0000000000000000
    Total Energy =                        -91.7912711393729381

  UHF NO Occupations:
  HONO-2 :    1 B2 1.9989179
  HONO-1 :    1 B1 1.0000000
  HONO-0 :    5 A1 1.0000000
  LUNO+0 :    2 B2 0.0010821
  LUNO+1 :    6 A1 0.0003159
  LUNO+2 :    7 A1 0.0001555
  LUNO+3 :    8 A1 0.0000009

Computation Completed

Properties will be evaluated at   0.000000,   0.000000,   0.000000 [a0]

Properties computed using the B3LYP density matrix

 Multipole Moments:

 ------------------------------------------------------------------------------------
     Multipole            Electronic (a.u.)      Nuclear  (a.u.)        Total (a.u.)
 ------------------------------------------------------------------------------------

 L = 1.  Multiply by 2.5417464519 to convert [e a0] to [Debye]
 Dipole X            :          0.0000000            0.0000000            0.0000000
 Dipole Y            :          0.0000000            0.0000000            0.0000000
 Dipole Z            :          0.8959352            0.0011724            0.8971076
 Magnitude           :                                                    0.8971076

 L = 2.  Multiply by 1.3450342976 to convert [e a0^2] to [Debye ang]
 Quadrupole XX       :         -5.0330424            0.0000000           -5.0330424
 Quadrupole XY       :          0.0000000            0.0000000            0.0000000
 Quadrupole XZ       :          0.0000000            0.0000000            0.0000000
 Quadrupole YY       :         -5.8187572            0.0000000           -5.8187572
 Quadrupole YZ       :          0.0000000            0.0000000            0.0000000
 Quadrupole ZZ       :        -14.1636432            8.8263918           -5.3372513
 Traceless XX        :          3.3054385           -2.9421306            0.3633079
 Traceless YY        :          2.5197237           -2.9421306           -0.4224069
 Traceless ZZ        :         -5.8251622            5.8842612            0.0590990

 ------------------------------------------------------------------------------------
  ==> Computing MBIS Charges <==

  Electron Count from Grid (Expected Number): 12.00000 (12.00000)
  Difference:  0.00000

  MBIS Charges: (a.u.)
   Center  Symbol  Z      Pop.       Charge
      1       N    7    6.981921    0.018079
      2       C    6    5.018079    0.981921

  MBIS Dipoles: [e a0]
   Center  Symbol  Z        X           Y           Z
      1       N    7   -0.000000    0.000000   -0.031327
      2       C    6   -0.000000    0.000000    0.068220

  MBIS Quadrupoles: [e a0^2]
   Center  Symbol  Z      XX        XY        XZ        YY        YZ        ZZ
      1       N    7   -2.9808   -0.0000   -0.0000   -3.4370    0.0000   -3.7980
      2       C    6   -2.0523    0.0000   -0.0000   -2.3818    0.0000   -2.4969

  MBIS Octupoles: [e a0^3]
   Center  Symbol  Z      XXX       XXY       XXZ       XYY       XYZ       XZZ       YYY       YYZ       YZZ       ZZZ
      1       N    7   -0.0000   -0.0000    0.0774   -0.0000    0.0000   -0.0000   -0.0000   -0.0625    0.0000    0.2545
      2       C    6   -0.0000   -0.0000   -0.0830   -0.0000    0.0000   -0.0000    0.0000   -0.0036    0.0000   -0.2095

  MBIS Radial Moments:
   Center  Symbol  Z      [a0^2]      [a0^3]      [a0^4]
      1       N    7   10.215765   19.481629   44.468831
      2       C    6    6.930991   13.569422   31.942295

  MBIS Valence Widths: [a0]
   Center  Symbol  Z     Width
      1       N    7    0.400008
      2       C    6    0.412636

*** tstop() called on Mac.lan at Sun Aug 10 18:33:17 2025
Module time:
	user time   =       4.50 seconds =       0.07 minutes
	system time =       2.18 seconds =       0.04 minutes
	total time  =          1 seconds =       0.02 minutes
Total time:
	user time   =      21.67 seconds =       0.36 minutes
	system time =       2.87 seconds =       0.05 minutes
	total time  =          2 seconds =       0.03 minutes

    Psi4 stopped on: Sunday, 10 August 2025 06:33PM
    Psi4 wall time for execution: 0:00:02.43

*** Psi4 exiting successfully. Buy a developer a beer!
