                               Psi4 1.9.1 release

  ==> Input File <==

--------------------------------------------------------------------------
molecule {
1 3
N           0.000000           0.000000           0.000000
C           0.000000           0.000000           1.394934
}

set {
basis              cc-pvtz
reference          uks
maxiter            500
DAMPING_PERCENTAGE 1
E_CONVERGENCE      1.0E-8
D_CONVERGENCE      1.0E-8
DIIS_MAX_VECS      400
MBIS_MAXITER       8000
guess              read
}

E, wfn = energy('b3lyp', restart_file='last_wfn', return_wfn=True)
properties('b3lyp','MBIS_CHARGES', wfn=wfn)
wfn.to_file('last_wfn')
--------------------------------------------------------------------------

    Molecular point group: c2v
  Charge       = 1
  Multiplicity = 3
  Basis Set: CC-PVTZ
    Blend: CC-PVTZ
  Basis Set: (CC-PVTZ AUX)
    Blend: CC-PVTZ-JKFIT
  @DF-UKS Final Energy:   -92.20480651645917
    Total Energy =                        -92.2048065164591719
 Dipole X            :          0.0000000            0.0000000            0.0000000
 Dipole Y            :          0.0000000            0.0000000            0.0000000
 Dipole Z            :          0.6403007            0.0018698            0.6421705
 Magnitude           :                                                    0.6421705
    Molecular point group: c2v

    Geometry (in Angstrom), charge = 1, multiplicity = 3:

       Center              X                  Y                   Z               Mass
    ------------   -----------------  -----------------  -----------------  -----------------
         N            0.000000000000     0.000000000000    -0.643739582372    14.003074004430
         C            0.000000000000     0.000000000000     0.751194417628    12.000000000000

  Charge       = 1
  Multiplicity = 3
  Basis Set: CC-PVTZ
    Blend: CC-PVTZ
  Basis Set: (CC-PVTZ AUX)
    Blend: CC-PVTZ-JKFIT

    Orbital Energies [Eh]
    ---------------------

    Alpha Occupied:

       1A1   -14.865823     2A1   -10.785051     3A1    -1.312204
       4A1    -0.925293     5A1    -0.783809     1B1    -0.777255
       1B2    -0.735845

    Alpha Virtual:

       2B1    -0.487121     2B2    -0.456423     6A1    -0.156904
       7A1     0.000379     3B1     0.006938     3B2     0.016644
       8A1     0.020927     9A1     0.151702     4B1     0.193790
       4B2     0.212205     1A2     0.287917    10A1     0.288371
       5B1     0.391485     5B2     0.413044    11A1     0.561982
      12A1     0.740666     2A2     0.743186    13A1     0.745981
       6B1     1.059288     6B2     1.081615    14A1     1.287554
       7B1     1.574665     7B2     1.594101    15A1     1.756644
       8B1     2.229981     3A2     2.247868    16A1     2.247977
       8B2     2.248881     9B1     2.249133     9B2     2.259118
      10B1     2.489975    17A1     2.495450     4A2     2.506535
      18A1     2.512194    10B2     2.519251    19A1     2.544587
      11B1     2.853618    11B2     2.879468    20A1     2.962019
      12B1     3.469937    12B2     3.470078    21A1     3.710549
       5A2     3.710906    22A1     4.041808     6A2     4.042557
      23A1     4.079231    13B1     4.124348    13B2     4.161943
      24A1     4.562122    14B1     4.625085    14B2     4.655005
      25A1     5.036601    26A1     8.411645

    Beta Occupied:

       1A1   -14.842803     2A1   -10.766773     3A1    -1.240766
       4A1    -0.829436     1B2    -0.713107

    Beta Virtual:

       5A1    -0.605222     1B1    -0.603376     2B2    -0.426609
       2B1    -0.388299     6A1    -0.112519     3B2     0.021630
       3B1     0.027335     7A1     0.028084     8A1     0.066628
       9A1     0.178720     4B2     0.219804     4B1     0.231232
       1A2     0.312139    10A1     0.314095     5B2     0.444101
       5B1     0.449910    11A1     0.589974     2A2     0.778608
      12A1     0.781024    13A1     0.787237     6B2     1.107516
       6B1     1.113675    14A1     1.328617     7B2     1.606916
       7B1     1.614961    15A1     1.815263     8B2     2.280227
       8B1     2.280879     9B2     2.284585     3A2     2.288201
      16A1     2.290586     9B1     2.300460     4A2     2.552251
      17A1     2.554984    10B2     2.559082    18A1     2.570753
      10B1     2.575286    19A1     2.602575    11B2     2.927934
      11B1     2.936264    20A1     3.030749    12B2     3.518428
      12B1     3.519795     5A2     3.761621    21A1     3.765861
       6A2     4.105504    22A1     4.111027    23A1     4.135106
      13B2     4.200623    13B1     4.222700    24A1     4.623006
      14B2     4.691737    14B1     4.700547    25A1     5.080683
      26A1     8.449958

    Final Occupation by Irrep:
             A1    A2    B1    B2
    DOCC [     4,    0,    0,    1 ]
    SOCC [     1,    0,    1,    0 ]
    NA   [     5,    0,    1,    1 ]
    NB   [     4,    0,    0,    1 ]

  @DF-UKS Final Energy:   -92.20480652218316

   => Energetics <=

    Nuclear Repulsion Energy =             15.9329709134195632
    One-Electron Energy =                -150.9043851010976311
    Two-Electron Energy =                  52.1888756976876849
    DFT Exchange-Correlation Energy =      -9.4222680321927772
    Empirical Dispersion Energy =           0.0000000000000000
    VV10 Nonlocal Energy =                  0.0000000000000000
    Total Energy =                        -92.2048065221831763

  UHF NO Occupations:
  HONO-2 :    4 A1 1.9979374
  HONO-1 :    1 B1 1.0000000
  HONO-0 :    5 A1 1.0000000
  LUNO+0 :    6 A1 0.0020626
  LUNO+1 :    7 A1 0.0003562
  LUNO+2 :    2 B2 0.0001850
  LUNO+3 :    8 A1 0.0000005

Computation Completed

Properties will be evaluated at   0.000000,   0.000000,   0.000000 [a0]

Properties computed using the B3LYP density matrix

 Multipole Moments:

 ------------------------------------------------------------------------------------
     Multipole            Electronic (a.u.)      Nuclear  (a.u.)        Total (a.u.)
 ------------------------------------------------------------------------------------

 L = 1.  Multiply by 2.5417464519 to convert [e a0] to [Debye]
 Dipole X            :          0.0000000            0.0000000            0.0000000
 Dipole Y            :          0.0000000            0.0000000            0.0000000
 Dipole Z            :          0.6403015            0.0018698            0.6421713
 Magnitude           :                                                    0.6421713

 L = 2.  Multiply by 1.3450342976 to convert [e a0^2] to [Debye ang]
 Quadrupole XX       :         -5.9590657            0.0000000           -5.9590657
 Quadrupole XY       :          0.0000000            0.0000000            0.0000000
 Quadrupole XZ       :          0.0000000            0.0000000            0.0000000
 Quadrupole YY       :         -7.0434859            0.0000000           -7.0434859
 Quadrupole YZ       :          0.0000000            0.0000000            0.0000000
 Quadrupole ZZ       :        -26.5692878           22.4497236           -4.1195643
 Traceless XX        :          7.2315474           -7.4832412           -0.2516938
 Traceless YY        :          6.1471273           -7.4832412           -1.3361139
 Traceless ZZ        :        -13.3786747           14.9664824            1.5878077

 ------------------------------------------------------------------------------------
  ==> Computing MBIS Charges <==

  Electron Count from Grid (Expected Number): 12.00000 (12.00000)
  Difference:  0.00000

  MBIS Charges: (a.u.)
   Center  Symbol  Z      Pop.       Charge
      1       N    7    6.737203    0.262797
      2       C    6    5.262798    0.737202

  MBIS Dipoles: [e a0]
   Center  Symbol  Z        X           Y           Z
      1       N    7    0.000000    0.000000   -0.227000
      2       C    6    0.000000    0.000000    0.142366

  MBIS Quadrupoles: [e a0^2]
   Center  Symbol  Z      XX        XY        XZ        YY        YZ        ZZ
      1       N    7   -3.2146    0.0000    0.0000   -3.7868    0.0000   -3.7070
      2       C    6   -2.7445   -0.0000   -0.0000   -3.2566    0.0000   -3.2435

  MBIS Octupoles: [e a0^3]
   Center  Symbol  Z      XXX       XXY       XXZ       XYY       XYZ       XZZ       YYY       YYZ       YZZ       ZZZ
      1       N    7   -0.0000   -0.0000   -0.1772    0.0000   -0.0000   -0.0000   -0.0000   -0.3383   -0.0000   -0.7332
      2       C    6   -0.0000   -0.0000    0.1205   -0.0000   -0.0000    0.0000    0.0000    0.2977   -0.0000    0.4729

  MBIS Radial Moments:
   Center  Symbol  Z      [a0^2]      [a0^3]      [a0^4]
      1       N    7   10.708437   21.308058   50.527372
      2       C    6    9.244615   20.007673   51.540655

  MBIS Valence Widths: [a0]
   Center  Symbol  Z     Width
      1       N    7    0.422455
      2       C    6    0.467171

*** tstop() called on Mac.lan at Sun Aug 10 18:34:11 2025
Module time:
	user time   =      15.82 seconds =       0.26 minutes
	system time =       2.53 seconds =       0.04 minutes
	total time  =          2 seconds =       0.03 minutes
Total time:
	user time   =      81.16 seconds =       1.35 minutes
	system time =       6.33 seconds =       0.11 minutes
	total time  =          9 seconds =       0.15 minutes

    Psi4 stopped on: Sunday, 10 August 2025 06:34PM
    Psi4 wall time for execution: 0:00:08.85

*** Psi4 exiting successfully. Buy a developer a beer!
