                               Psi4 1.9.1 release

  ==> Input File <==

--------------------------------------------------------------------------
molecule {
1 4
C           0.000000           0.000000           0.000000
C           0.000000           0.000000           1.568146
}

set {
basis              cc-pvtz
reference          uks
maxiter            500
DAMPING_PERCENTAGE 1
E_CONVERGENCE      1.0E-8
D_CONVERGENCE      1.0E-8
DIIS_MAX_VECS      400
MBIS_MAXITER       8000
guess              read
}

E, wfn = energy('b3lyp', restart_file='last_wfn', return_wfn=True)
properties('b3lyp','MBIS_CHARGES', wfn=wfn)
wfn.to_file('last_wfn')
--------------------------------------------------------------------------

    Molecular point group: d2h
  Charge       = 1
  Multiplicity = 4
  Basis Set: CC-PVTZ
    Blend: CC-PVTZ
  Basis Set: (CC-PVTZ AUX)
    Blend: CC-PVTZ-JKFIT
  @DF-UKS Final Energy:   -75.49250969203240
    Total Energy =                        -75.4925096920323995
 Dipole X            :          0.0000000            0.0000000            0.0000000
 Dipole Y            :          0.0000000            0.0000000            0.0000000
 Dipole Z            :          0.0000000            0.0000000            0.0000000
 Magnitude           :                                                    0.0000000
    Molecular point group: d2h

    Geometry (in Angstrom), charge = 1, multiplicity = 4:

       Center              X                  Y                   Z               Mass
    ------------   -----------------  -----------------  -----------------  -----------------
         C            0.000000000000     0.000000000000    -0.784073000000    12.000000000000
         C            0.000000000000     0.000000000000     0.784073000000    12.000000000000

  Charge       = 1
  Multiplicity = 4
  Basis Set: CC-PVTZ
    Blend: CC-PVTZ
  Basis Set: (CC-PVTZ AUX)
    Blend: CC-PVTZ-JKFIT

    Orbital Energies [Eh]
    ---------------------

    Alpha Occupied:

       1Ag   -10.723444     1B1u  -10.723124     2Ag    -1.132908
       2B1u   -0.842723     3Ag    -0.695760     1B3u   -0.677530
       1B2u   -0.677530

    Alpha Virtual:

       1B2g   -0.450806     1B3g   -0.450806     3B1u   -0.182588
       2B3u    0.010407     2B2u    0.010407     4B1u    0.021049
       4Ag     0.026732     5Ag     0.043434     2B2g    0.094791
       2B3g    0.094791     1B1g    0.238534     6Ag     0.238534
       3B2u    0.313978     3B3u    0.313978     5B1u    0.345704
       1Au     0.478991     6B1u    0.478991     3B3g    0.782864
       3B2g    0.782864     7Ag     0.785068     7B1u    0.809666
       4B2u    1.519188     4B3u    1.519188     8Ag     1.604221
       4B2g    1.671831     4B3g    1.671831     5B3u    2.019373
       5B2u    2.019373     2B1g    2.020280     9Ag     2.020280
      10Ag     2.129636     8B1u    2.164430     6B2u    2.197205
       6B3u    2.197205     5B3g    2.367026     5B2g    2.367026
      11Ag     2.497848     3B1g    2.497848     9B1u    2.550476
       2Au     2.550477    10B1u    2.575744     6B2g    2.684155
       6B3g    2.684155     3Au     2.780472    11B1u    2.780473
       7B3u    2.789259     7B2u    2.789259    12B1u    3.113577
      12Ag     3.362708    13Ag     3.524269     7B3g    3.531665
       7B2g    3.531665    13B1u    6.771614

    Beta Occupied:

       1Ag   -10.698781     1B1u  -10.698686     2Ag    -1.035738
       2B1u   -0.725371

    Beta Virtual:

       3Ag    -0.527670     1B2u   -0.521728     1B3u   -0.521728
       1B2g   -0.353131     1B3g   -0.353131     3B1u   -0.115233
       2B3u    0.037983     2B2u    0.037983     4Ag     0.058100
       4B1u    0.063196     5Ag     0.076899     2B2g    0.117653
       2B3g    0.117653     1B1g    0.290055     6Ag     0.290055
       5B1u    0.371746     3B2u    0.375371     3B3u    0.375371
       1Au     0.523715     6B1u    0.523715     3B3g    0.826688
       3B2g    0.826688     7Ag     0.839590     7B1u    0.851715
       4B2u    1.576403     4B3u    1.576403     8Ag     1.665528
       4B2g    1.727713     4B3g    1.727713     5B3u    2.083847
       5B2u    2.083847     2B1g    2.088013     9Ag     2.088014
      10Ag     2.201398     8B1u    2.220454     6B2u    2.263554
       6B3u    2.263554     5B3g    2.432586     5B2g    2.432586
      11Ag     2.582942     3B1g    2.582943     9B1u    2.629126
       2Au     2.629127    10B1u    2.653644     6B2g    2.765703
       6B3g    2.765703     3Au     2.852052    11B1u    2.852054
       7B3u    2.873981     7B2u    2.873981    12B1u    3.180456
      12Ag     3.427357    13Ag     3.580123     7B3g    3.598454
       7B2g    3.598454    13B1u    6.816563

    Final Occupation by Irrep:
             Ag   B1g   B2g   B3g    Au   B1u   B2u   B3u
    DOCC [     2,    0,    0,    0,    0,    2,    0,    0 ]
    SOCC [     1,    0,    0,    0,    0,    0,    1,    1 ]
    NA   [     3,    0,    0,    0,    0,    2,    1,    1 ]
    NB   [     2,    0,    0,    0,    0,    2,    0,    0 ]

  @DF-UKS Final Energy:   -75.49250969247107

   => Energetics <=

    Nuclear Repulsion Energy =             12.1483456158546428
    One-Electron Energy =                -120.7295390034639126
    Two-Electron Energy =                  41.2948672532368519
    DFT Exchange-Correlation Energy =      -8.2061835580986582
    Empirical Dispersion Energy =           0.0000000000000000
    VV10 Nonlocal Energy =                  0.0000000000000000
    Total Energy =                        -75.4925096924710743

  UHF NO Occupations:
  HONO-2 :    1B3u 1.0000000
  HONO-1 :    1B2u 1.0000000
  HONO-0 :    3 Ag 1.0000000
  LUNO+0 :    3B1u 0.0014646
  LUNO+1 :    4 Ag 0.0001081
  LUNO+2 :    4B1u 0.0000008
  LUNO+3 :    5 Ag 0.0000006

Computation Completed

Properties will be evaluated at   0.000000,   0.000000,   0.000000 [a0]

Properties computed using the B3LYP density matrix

 Multipole Moments:

 ------------------------------------------------------------------------------------
     Multipole            Electronic (a.u.)      Nuclear  (a.u.)        Total (a.u.)
 ------------------------------------------------------------------------------------

 L = 1.  Multiply by 2.5417464519 to convert [e a0] to [Debye]
 Dipole X            :          0.0000000            0.0000000            0.0000000
 Dipole Y            :          0.0000000            0.0000000            0.0000000
 Dipole Z            :          0.0000000            0.0000000            0.0000000
 Magnitude           :                                                    0.0000000

 L = 2.  Multiply by 1.3450342976 to convert [e a0^2] to [Debye ang]
 Quadrupole XX       :         -6.6296853            0.0000000           -6.6296853
 Quadrupole XY       :          0.0000000            0.0000000            0.0000000
 Quadrupole XZ       :          0.0000000            0.0000000            0.0000000
 Quadrupole YY       :         -6.6296853            0.0000000           -6.6296853
 Quadrupole YZ       :          0.0000000            0.0000000            0.0000000
 Quadrupole ZZ       :        -30.8852147           26.3446224           -4.5405923
 Traceless XX        :          8.0851764           -8.7815408           -0.6963644
 Traceless YY        :          8.0851764           -8.7815408           -0.6963644
 Traceless ZZ        :        -16.1703529           17.5630816            1.3927287

 ------------------------------------------------------------------------------------
  ==> Computing MBIS Charges <==

  Electron Count from Grid (Expected Number): 11.00000 (11.00000)
  Difference:  0.00000

  MBIS Charges: (a.u.)
   Center  Symbol  Z      Pop.       Charge
      1       C    6    5.500000    0.500000
      2       C    6    5.500000    0.500000

  MBIS Dipoles: [e a0]
   Center  Symbol  Z        X           Y           Z
      1       C    6   -0.000000   -0.000000   -0.118971
      2       C    6   -0.000000    0.000000    0.118971

  MBIS Quadrupoles: [e a0^2]
   Center  Symbol  Z      XX        XY        XZ        YY        YZ        ZZ
      1       C    6   -3.3148    0.0000   -0.0000   -3.3148   -0.0000   -3.7205
      2       C    6   -3.3148    0.0000    0.0000   -3.3148    0.0000   -3.7205

  MBIS Octupoles: [e a0^3]
   Center  Symbol  Z      XXX       XXY       XXZ       XYY       XYZ       XZZ       YYY       YYZ       YZZ       ZZZ
      1       C    6   -0.0000   -0.0000   -0.1559   -0.0000    0.0000   -0.0000    0.0000   -0.1559    0.0000   -0.5518
      2       C    6   -0.0000   -0.0000    0.1559   -0.0000   -0.0000   -0.0000    0.0000    0.1559    0.0000    0.5518

  MBIS Radial Moments:
   Center  Symbol  Z      [a0^2]      [a0^3]      [a0^4]
      1       C    6   10.350228   22.967818   60.650103
      2       C    6   10.350228   22.967818   60.650103

  MBIS Valence Widths: [a0]
   Center  Symbol  Z     Width
      1       C    6    0.479520
      2       C    6    0.479520

*** tstop() called on Mac.lan at Sun Aug 10 18:22:47 2025
Module time:
	user time   =       3.91 seconds =       0.07 minutes
	system time =       1.81 seconds =       0.03 minutes
	total time  =          0 seconds =       0.00 minutes
Total time:
	user time   =      15.10 seconds =       0.25 minutes
	system time =       4.33 seconds =       0.07 minutes
	total time  =          1 seconds =       0.02 minutes

    Psi4 stopped on: Sunday, 10 August 2025 06:22PM
    Psi4 wall time for execution: 0:00:01.90

*** Psi4 exiting successfully. Buy a developer a beer!
