                               Psi4 1.9.1 release

  ==> Input File <==

--------------------------------------------------------------------------
molecule {
1 4
C           0.000000           0.000000           0.000000
C           0.000000           0.000000           1.294101
}

set {
basis              cc-pvtz
reference          uks
maxiter            500
DAMPING_PERCENTAGE 1
E_CONVERGENCE      1.0E-8
D_CONVERGENCE      1.0E-8
DIIS_MAX_VECS      400
MBIS_MAXITER       8000
guess              SAP
}

E, wfn = energy('b3lyp', return_wfn=True)
properties('b3lyp','MBIS_CHARGES', wfn=wfn)
wfn.to_file('last_wfn')
--------------------------------------------------------------------------

    Molecular point group: d2h
  Charge       = 1
  Multiplicity = 4
  Basis Set: CC-PVTZ
    Blend: CC-PVTZ
  Basis Set: (CC-PVTZ AUX)
    Blend: CC-PVTZ-JKFIT
  @DF-UKS Final Energy:   -75.46265186329357
    Total Energy =                        -75.4626518632935728
 Dipole X            :          0.0000000            0.0000000            0.0000000
 Dipole Y            :          0.0000000            0.0000000            0.0000000
 Dipole Z            :          0.0000000           -0.0000000           -0.0000000
 Magnitude           :                                                    0.0000000
    Molecular point group: d2h

    Geometry (in Angstrom), charge = 1, multiplicity = 4:

       Center              X                  Y                   Z               Mass
    ------------   -----------------  -----------------  -----------------  -----------------
         C            0.000000000000     0.000000000000    -0.647050500000    12.000000000000
         C            0.000000000000     0.000000000000     0.647050500000    12.000000000000

  Charge       = 1
  Multiplicity = 4
  Basis Set: CC-PVTZ
    Blend: CC-PVTZ
  Basis Set: (CC-PVTZ AUX)
    Blend: CC-PVTZ-JKFIT

    Orbital Energies [Eh]
    ---------------------

    Alpha Occupied:

       1Ag   -10.701244     1B1u  -10.699921     2Ag    -1.184934
       2B1u   -0.841545     3Ag    -0.743529     1B2u   -0.728993
       1B3u   -0.692659

    Alpha Virtual:

       1B3g   -0.403661     1B2g   -0.373926     3B1u   -0.052246
       2B2u   -0.002956     2B3u    0.008798     4Ag     0.020033
       5Ag     0.028099     2B3g    0.102920     2B2g    0.111990
       4B1u    0.124744     1B1g    0.234861     6Ag     0.235456
       5B1u    0.352751     3B2u    0.383132     3B3u    0.406704
       1Au     0.531575     6B1u    0.531703     3B3g    0.811421
       3B2g    0.825696     7Ag     0.826447     7B1u    0.976275
       4B2u    1.533897     4B3u    1.559600     8Ag     1.657885
       4B3g    1.773183     4B2g    1.800930     8B1u    1.975689
       2B1g    2.033694     9Ag     2.034358     5B2u    2.059357
       5B3u    2.089952     6B2u    2.129368     6B3u    2.129744
      10Ag     2.290487     5B3g    2.472367     5B2g    2.472739
      11Ag     2.516057     3B1g    2.516245     6B3g    2.603511
       9B1u    2.612924     2Au     2.613784     6B2g    2.623468
      10B1u    2.813794     7B2u    2.992824     7B3u    3.018695
       3Au     3.057545    11B1u    3.058118    12Ag     3.276271
      12B1u    3.502789     7B3g    4.083948     7B2g    4.112854
      13Ag     4.192068    13B1u   11.101167

    Beta Occupied:

       1Ag   -10.667841     1B1u  -10.666792     2Ag    -1.103180
       1B3u   -0.650096

    Beta Virtual:

       2B1u   -0.592855     1B2u   -0.542791     3Ag    -0.491685
       1B2g   -0.310433     1B3g   -0.270681     3B1u   -0.023574
       2B3u    0.016890     2B2u    0.028338     4Ag     0.047589
       5Ag     0.090315     2B2g    0.125102     2B3g    0.139862
       4B1u    0.238479     1B1g    0.269611     6Ag     0.274308
       5B1u    0.381429     3B3u    0.457367     3B2u    0.473851
       1Au     0.570777     6B1u    0.577127     3B2g    0.863116
       3B3g    0.877817     7Ag     0.904516     7B1u    1.041509
       4B3u    1.585890     4B2u    1.602487     8Ag     1.723037
       4B2g    1.828356     4B3g    1.841789     8B1u    2.068736
       2B1g    2.087956     9Ag     2.095130     5B3u    2.138726
       5B2u    2.159326     6B3u    2.183642     6B2u    2.187530
      10Ag     2.423901     5B2g    2.530936     5B3g    2.535029
       3B1g    2.604677    11Ag     2.616179     2Au     2.695602
       9B1u    2.705788     6B2g    2.726783     6B3g    2.763320
      10B1u    2.941807     7B3u    3.113225     3Au     3.127696
      11B1u    3.138697     7B2u    3.144443    12Ag     3.369110
      12B1u    3.601495     7B2g    4.167262     7B3g    4.190908
      13Ag     4.261346    13B1u   11.152030

    Final Occupation by Irrep:
             Ag   B1g   B2g   B3g    Au   B1u   B2u   B3u
    DOCC [     2,    0,    0,    0,    0,    1,    0,    1 ]
    SOCC [     1,    0,    0,    0,    0,    1,    1,    0 ]
    NA   [     3,    0,    0,    0,    0,    2,    1,    1 ]
    NB   [     2,    0,    0,    0,    0,    1,    0,    1 ]

  @DF-UKS Final Energy:   -75.46265186328644

   => Energetics <=

    Nuclear Repulsion Energy =             14.7209372252397692
    One-Electron Energy =                -125.6833268462863771
    Two-Electron Energy =                  43.8253971469780481
    DFT Exchange-Correlation Energy =      -8.3256593892178810
    Empirical Dispersion Energy =           0.0000000000000000
    VV10 Nonlocal Energy =                  0.0000000000000000
    Total Energy =                        -75.4626518632864389

  UHF NO Occupations:
  HONO-2 :    2B1u 1.0000000
  HONO-1 :    3 Ag 1.0000000
  HONO-0 :    1B2u 1.0000000
  LUNO+0 :    2B3u 0.0008052
  LUNO+1 :    4 Ag 0.0005201
  LUNO+2 :    3B1u 0.0000008
  LUNO+3 :    5 Ag 0.0000005

Computation Completed

Properties will be evaluated at   0.000000,   0.000000,   0.000000 [a0]

Properties computed using the B3LYP density matrix

 Multipole Moments:

 ------------------------------------------------------------------------------------
     Multipole            Electronic (a.u.)      Nuclear  (a.u.)        Total (a.u.)
 ------------------------------------------------------------------------------------

 L = 1.  Multiply by 2.5417464519 to convert [e a0] to [Debye]
 Dipole X            :          0.0000000            0.0000000            0.0000000
 Dipole Y            :          0.0000000            0.0000000            0.0000000
 Dipole Z            :          0.0000000            0.0000000            0.0000000
 Magnitude           :                                                    0.0000000

 L = 2.  Multiply by 1.3450342976 to convert [e a0^2] to [Debye ang]
 Quadrupole XX       :         -7.2078537            0.0000000           -7.2078537
 Quadrupole XY       :          0.0000000            0.0000000            0.0000000
 Quadrupole XZ       :          0.0000000            0.0000000            0.0000000
 Quadrupole YY       :         -5.9658091            0.0000000           -5.9658091
 Quadrupole YZ       :          0.0000000            0.0000000            0.0000000
 Quadrupole ZZ       :        -21.4355148           17.9413589           -3.4941559
 Traceless XX        :          4.3285388           -5.9804530           -1.6519142
 Traceless YY        :          5.5705834           -5.9804530           -0.4098696
 Traceless ZZ        :         -9.8991222           11.9609060            2.0617837

 ------------------------------------------------------------------------------------
  ==> Computing MBIS Charges <==

  Electron Count from Grid (Expected Number): 11.00000 (11.00000)
  Difference: -0.00000

  MBIS Charges: (a.u.)
   Center  Symbol  Z      Pop.       Charge
      1       C    6    5.500000    0.500000
      2       C    6    5.500000    0.500000

  MBIS Dipoles: [e a0]
   Center  Symbol  Z        X           Y           Z
      1       C    6   -0.000000    0.000000   -0.393398
      2       C    6   -0.000000    0.000000    0.393398

  MBIS Quadrupoles: [e a0^2]
   Center  Symbol  Z      XX        XY        XZ        YY        YZ        ZZ
      1       C    6   -3.6039    0.0000   -0.0000   -2.9829   -0.0000   -3.4567
      2       C    6   -3.6039    0.0000    0.0000   -2.9829    0.0000   -3.4567

  MBIS Octupoles: [e a0^3]
   Center  Symbol  Z      XXX       XXY       XXZ       XYY       XYZ       XZZ       YYY       YYZ       YZZ       ZZZ
      1       C    6   -0.0000    0.0000   -0.5309   -0.0000   -0.0000   -0.0000    0.0000   -0.3322    0.0000   -0.8786
      2       C    6   -0.0000    0.0000    0.5309   -0.0000   -0.0000   -0.0000    0.0000    0.3322    0.0000    0.8786

  MBIS Radial Moments:
   Center  Symbol  Z      [a0^2]      [a0^3]      [a0^4]
      1       C    6   10.043520   22.056750   57.799506
      2       C    6   10.043520   22.056750   57.799506

  MBIS Valence Widths: [a0]
   Center  Symbol  Z     Width
      1       C    6    0.471036
      2       C    6    0.471036

*** tstop() called on Mac.lan at Sun Aug 10 18:16:10 2025
Module time:
	user time   =      13.83 seconds =       0.23 minutes
	system time =       2.88 seconds =       0.05 minutes
	total time  =          1 seconds =       0.02 minutes
Total time:
	user time   =      29.63 seconds =       0.49 minutes
	system time =       5.12 seconds =       0.09 minutes
	total time  =          3 seconds =       0.05 minutes

    Psi4 stopped on: Sunday, 10 August 2025 06:16PM
    Psi4 wall time for execution: 0:00:03.38

*** Psi4 exiting successfully. Buy a developer a beer!
