                               Psi4 1.9.1 release

  ==> Input File <==

--------------------------------------------------------------------------
molecule {
1 1
O           0.000000           0.000000           0.000000
N           0.000000           0.000000           1.372279
}

set {
basis              cc-pvtz
reference          uks
maxiter            500
DAMPING_PERCENTAGE 1
E_CONVERGENCE      1.0E-8
D_CONVERGENCE      1.0E-8
DIIS_MAX_VECS      400
MBIS_MAXITER       8000
guess              read
}

E, wfn = energy('b3lyp', restart_file='last_wfn', return_wfn=True)
properties('b3lyp','MBIS_CHARGES', wfn=wfn)
wfn.to_file('last_wfn')
--------------------------------------------------------------------------

    Molecular point group: c2v
  Charge       = 1
  Multiplicity = 1
  Basis Set: CC-PVTZ
    Blend: CC-PVTZ
  Basis Set: (CC-PVTZ AUX)
    Blend: CC-PVTZ-JKFIT
  @DF-UKS Final Energy:  -129.43885751935471
    Total Energy =                       -129.4388575193547126
 Dipole X            :          0.0000000            0.0000000            0.0000000
 Dipole Y            :          0.0000000            0.0000000            0.0000000
 Dipole Z            :          0.4282099           -0.0052032            0.4230067
 Magnitude           :                                                    0.4230067
    Molecular point group: c2v

    Geometry (in Angstrom), charge = 1, multiplicity = 1:

       Center              X                  Y                   Z               Mass
    ------------   -----------------  -----------------  -----------------  -----------------
         O            0.000000000000     0.000000000000    -0.640580427994    15.994914619570
         N            0.000000000000     0.000000000000     0.731698572006    14.003074004430

  Charge       = 1
  Multiplicity = 1
  Basis Set: CC-PVTZ
    Blend: CC-PVTZ
  Basis Set: (CC-PVTZ AUX)
    Blend: CC-PVTZ-JKFIT

    Orbital Energies [Eh]
    ---------------------

    Alpha Occupied:

       1A1   -19.759533     2A1   -15.014223     3A1    -1.539182
       4A1    -1.140866     5A1    -0.886106     1B1    -0.857625
       1B2    -0.857625

    Alpha Virtual:

       2B1    -0.592509     2B2    -0.592509     6A1    -0.309040
       7A1     0.079570     3B1     0.108227     3B2     0.108227
       8A1     0.149613     9A1     0.241419     4B1     0.283162
       4B2     0.283162    10A1     0.576101     1A2     0.576101
       5B1     0.642833     5B2     0.642833    11A1     0.801703
      12A1     1.097317     2A2     1.097317    13A1     1.158692
       6B2     1.497478     6B1     1.497478    14A1     1.674776
       7B1     2.351690     7B2     2.351690    15A1     2.601308
       8B1     3.027547     8B2     3.027547     3A2     3.339574
      16A1     3.339575    17A1     3.369728     9B2     3.383087
       9B1     3.383087    10B1     3.554060    10B2     3.554060
      18A1     3.853796    19A1     3.897732     4A2     3.897739
      11B2     4.149132    11B1     4.149132    20A1     4.208126
      12B1     4.635729    12B2     4.635729    21A1     4.812753
       5A2     4.812755    22A1     4.997156    13B2     5.392833
      13B1     5.392833     6A2     5.701979    23A1     5.701985
      24A1     5.924118    14B1     6.169979    14B2     6.169979
      25A1     6.938774    26A1     8.871825

    Beta Occupied:

       1A1   -19.759533     2A1   -15.014223     3A1    -1.539182
       4A1    -1.140866     5A1    -0.886106     1B1    -0.857625
       1B2    -0.857625

    Beta Virtual:

       2B1    -0.592509     2B2    -0.592509     6A1    -0.309040
       7A1     0.079570     3B1     0.108227     3B2     0.108227
       8A1     0.149613     9A1     0.241419     4B1     0.283162
       4B2     0.283162    10A1     0.576101     1A2     0.576101
       5B1     0.642833     5B2     0.642833    11A1     0.801703
      12A1     1.097317     2A2     1.097317    13A1     1.158692
       6B1     1.497478     6B2     1.497478    14A1     1.674776
       7B1     2.351690     7B2     2.351690    15A1     2.601308
       8B1     3.027547     8B2     3.027547     3A2     3.339574
      16A1     3.339575    17A1     3.369728     9B2     3.383087
       9B1     3.383087    10B1     3.554060    10B2     3.554060
      18A1     3.853796    19A1     3.897732     4A2     3.897739
      11B2     4.149132    11B1     4.149132    20A1     4.208126
      12B1     4.635729    12B2     4.635729    21A1     4.812753
       5A2     4.812755    22A1     4.997156    13B2     5.392833
      13B1     5.392833     6A2     5.701979    23A1     5.701985
      24A1     5.924118    14B1     6.169979    14B2     6.169979
      25A1     6.938774    26A1     8.871825

    Final Occupation by Irrep:
             A1    A2    B1    B2
    DOCC [     5,    0,    1,    1 ]
    SOCC [     0,    0,    0,    0 ]
    NA   [     5,    0,    1,    1 ]
    NB   [     5,    0,    1,    1 ]

  @DF-UKS Final Energy:  -129.43885751316839

   => Energetics <=

    Nuclear Repulsion Energy =             21.5946784855849288
    One-Electron Energy =                -213.3954480183138003
    Two-Electron Energy =                  74.2567627334799738
    DFT Exchange-Correlation Energy =     -11.8948507139194923
    Empirical Dispersion Energy =           0.0000000000000000
    VV10 Nonlocal Energy =                  0.0000000000000000
    Total Energy =                       -129.4388575131683865

  UHF NO Occupations:
  HONO-2 :    1 B1 2.0000000
  HONO-1 :    4 A1 2.0000000
  HONO-0 :    5 A1 2.0000000
  LUNO+0 :    6 A1 0.0000000
  LUNO+1 :    7 A1 0.0000000
  LUNO+2 :    2 B2 0.0000000
  LUNO+3 :    8 A1 0.0000000

Computation Completed

Properties will be evaluated at   0.000000,   0.000000,   0.000000 [a0]

Properties computed using the B3LYP density matrix

 Multipole Moments:

 ------------------------------------------------------------------------------------
     Multipole            Electronic (a.u.)      Nuclear  (a.u.)        Total (a.u.)
 ------------------------------------------------------------------------------------

 L = 1.  Multiply by 2.5417464519 to convert [e a0] to [Debye]
 Dipole X            :          0.0000000            0.0000000            0.0000000
 Dipole Y            :          0.0000000            0.0000000            0.0000000
 Dipole Z            :          0.4282099           -0.0052032            0.4230067
 Magnitude           :                                                    0.4230067

 L = 2.  Multiply by 1.3450342976 to convert [e a0^2] to [Debye ang]
 Quadrupole XX       :         -6.2498157            0.0000000           -6.2498157
 Quadrupole XY       :          0.0000000            0.0000000            0.0000000
 Quadrupole XZ       :          0.0000000            0.0000000            0.0000000
 Quadrupole YY       :         -6.2498157            0.0000000           -6.2498157
 Quadrupole YZ       :          0.0000000            0.0000000            0.0000000
 Quadrupole ZZ       :        -29.5684630           25.1061066           -4.4623564
 Traceless XX        :          7.7728824           -8.3687022           -0.5958198
 Traceless YY        :          7.7728824           -8.3687022           -0.5958198
 Traceless ZZ        :        -15.5457649           16.7374044            1.1916395

 ------------------------------------------------------------------------------------
  ==> Computing MBIS Charges <==

  Electron Count from Grid (Expected Number): 14.00000 (14.00000)
  Difference: -0.00000

  MBIS Charges: (a.u.)
   Center  Symbol  Z      Pop.       Charge
      1       O    8    7.691402    0.308598
      2       N    7    6.308597    0.691403

  MBIS Dipoles: [e a0]
   Center  Symbol  Z        X           Y           Z
      1       O    8    0.000000   -0.000000   -0.170100
      2       N    7   -0.000000   -0.000000    0.010661

  MBIS Quadrupoles: [e a0^2]
   Center  Symbol  Z      XX        XY        XZ        YY        YZ        ZZ
      1       O    8   -3.2572    0.0000    0.0000   -3.2572   -0.0000   -3.3701
      2       N    7   -2.9926    0.0000    0.0000   -2.9926    0.0000   -3.3077

  MBIS Octupoles: [e a0^3]
   Center  Symbol  Z      XXX       XXY       XXZ       XYY       XYZ       XZZ       YYY       YYZ       YZZ       ZZZ
      1       O    8   -0.0000   -0.0000   -0.1669   -0.0000    0.0000   -0.0000   -0.0000   -0.1669    0.0000   -0.4948
      2       N    7   -0.0000   -0.0000    0.1438   -0.0000   -0.0000    0.0000   -0.0000    0.1438    0.0000    0.3061

  MBIS Radial Moments:
   Center  Symbol  Z      [a0^2]      [a0^3]      [a0^4]
      1       O    8    9.884527   17.556394   37.329839
      2       N    7    9.292852   17.967808   41.446319

  MBIS Valence Widths: [a0]
   Center  Symbol  Z     Width
      1       O    8    0.370913
      2       N    7    0.410985

*** tstop() called on Mac.lan at Sun Aug 10 18:42:35 2025
Module time:
	user time   =       4.04 seconds =       0.07 minutes
	system time =       2.16 seconds =       0.04 minutes
	total time  =          1 seconds =       0.02 minutes
Total time:
	user time   =      17.78 seconds =       0.30 minutes
	system time =       3.27 seconds =       0.05 minutes
	total time  =          2 seconds =       0.03 minutes

    Psi4 stopped on: Sunday, 10 August 2025 06:42PM
    Psi4 wall time for execution: 0:00:02.07

*** Psi4 exiting successfully. Buy a developer a beer!
