                               Psi4 1.9.1 release

  ==> Input File <==

--------------------------------------------------------------------------
molecule {
1 3
N           0.000000           0.000000           0.000000
C           0.000000           0.000000           1.689001
}

set {
basis              cc-pvtz
reference          uks
maxiter            500
DAMPING_PERCENTAGE 1
E_CONVERGENCE      1.0E-8
D_CONVERGENCE      1.0E-8
DIIS_MAX_VECS      400
MBIS_MAXITER       8000
guess              read
}

E, wfn = energy('b3lyp', restart_file='last_wfn', return_wfn=True)
properties('b3lyp','MBIS_CHARGES', wfn=wfn)
wfn.to_file('last_wfn')
--------------------------------------------------------------------------

    Molecular point group: c2v
  Charge       = 1
  Multiplicity = 3
  Basis Set: CC-PVTZ
    Blend: CC-PVTZ
  Basis Set: (CC-PVTZ AUX)
    Blend: CC-PVTZ-JKFIT
  @DF-UKS Final Energy:   -92.13265010269100
    Total Energy =                        -92.1326501026910165
 Dipole X            :          0.0000000            0.0000000            0.0000000
 Dipole Y            :          0.0000000            0.0000000            0.0000000
 Dipole Z            :          0.5310053            0.0022639            0.5332692
 Magnitude           :                                                    0.5332692
    Molecular point group: c2v

    Geometry (in Angstrom), charge = 1, multiplicity = 3:

       Center              X                  Y                   Z               Mass
    ------------   -----------------  -----------------  -----------------  -----------------
         N            0.000000000000     0.000000000000    -0.779446768353    14.003074004430
         C            0.000000000000     0.000000000000     0.909554231647    12.000000000000

  Charge       = 1
  Multiplicity = 3
  Basis Set: CC-PVTZ
    Blend: CC-PVTZ
  Basis Set: (CC-PVTZ AUX)
    Blend: CC-PVTZ-JKFIT

    Orbital Energies [Eh]
    ---------------------

    Alpha Occupied:

       1A1   -14.854002     2A1   -10.769619     3A1    -1.221240
       4A1    -0.923630     5A1    -0.744035     1B1    -0.730094
       1B2    -0.713158

    Alpha Virtual:

       2B1    -0.497186     2B2    -0.451586     6A1    -0.328589
       7A1     0.006462     3B1     0.029613     3B2     0.048413
       8A1     0.055342     9A1     0.158927     4B1     0.182306
       4B2     0.191755     1A2     0.338900    10A1     0.338952
       5B1     0.349248     5B2     0.372176    11A1     0.511208
      12A1     0.701095     2A2     0.701147    13A1     0.712549
       6B1     0.951123     6B2     0.968230    14A1     1.124815
       7B1     1.572690     7B2     1.611074    15A1     1.823923
       8B1     2.200768     8B2     2.225052    16A1     2.238847
       3A2     2.278304    17A1     2.284502     9B1     2.309131
       9B2     2.309550    10B1     2.508283    10B2     2.532739
      18A1     2.555646     4A2     2.557544    19A1     2.686991
      11B1     2.695993    11B2     2.729082    20A1     2.995642
      12B1     3.456026    12B2     3.456037    21A1     3.475709
       5A2     3.523558    22A1     3.524395    13B1     3.783803
      13B2     3.800053    23A1     3.986194     6A2     3.986269
      24A1     4.120524    14B1     4.316621    14B2     4.330588
      25A1     5.096024    26A1     5.945604

    Beta Occupied:

       1A1   -14.807312     2A1   -10.772706     3A1    -1.111709
       4A1    -0.862420     1B2    -0.654336

    Beta Virtual:

       5A1    -0.572907     1B1    -0.548565     2B2    -0.451094
       2B1    -0.420130     6A1    -0.256012     7A1     0.025294
       3B2     0.025661     3B1     0.037646     8A1     0.069405
       9A1     0.195645     4B2     0.235791     4B1     0.238376
       1A2     0.322403    10A1     0.326621     5B2     0.383891
       5B1     0.393495    11A1     0.557927    12A1     0.746051
       2A2     0.772588    13A1     0.773488     6B2     1.013666
       6B1     1.017183    14A1     1.186098     7B2     1.557931
       7B1     1.582763    15A1     1.865786     8B2     2.250882
       8B1     2.262076     9B2     2.273883     3A2     2.275235
      16A1     2.275730     9B1     2.276188    17A1     2.284965
       4A2     2.511506    18A1     2.521598    10B2     2.573282
      10B1     2.586985    11B2     2.749110    19A1     2.749386
      11B1     2.764123    20A1     3.033149    21A1     3.532204
      12B2     3.561447    12B1     3.561568     5A2     3.617164
      22A1     3.618060    13B2     3.882283    13B1     3.887263
       6A2     4.130587    23A1     4.131920    24A1     4.218341
      14B2     4.437462    14B1     4.441676    25A1     5.173232
      26A1     6.012443

    Final Occupation by Irrep:
             A1    A2    B1    B2
    DOCC [     4,    0,    0,    1 ]
    SOCC [     1,    0,    1,    0 ]
    NA   [     5,    0,    1,    1 ]
    NB   [     4,    0,    0,    1 ]

  @DF-UKS Final Energy:   -92.13265010240093

   => Energetics <=

    Nuclear Repulsion Energy =             13.1589281759691090
    One-Electron Energy =                -145.6509598615704419
    Two-Electron Energy =                  49.7442942070898866
    DFT Exchange-Correlation Energy =      -9.3849126238894964
    Empirical Dispersion Energy =           0.0000000000000000
    VV10 Nonlocal Energy =                  0.0000000000000000
    Total Energy =                        -92.1326501024009161

  UHF NO Occupations:
  HONO-2 :    1 B2 1.7031729
  HONO-1 :    1 B1 1.0000000
  HONO-0 :    5 A1 1.0000000
  LUNO+0 :    2 B2 0.2968271
  LUNO+1 :    6 A1 0.0078113
  LUNO+2 :    7 A1 0.0006571
  LUNO+3 :    8 A1 0.0000013

Computation Completed

Properties will be evaluated at   0.000000,   0.000000,   0.000000 [a0]

Properties computed using the B3LYP density matrix

 Multipole Moments:

 ------------------------------------------------------------------------------------
     Multipole            Electronic (a.u.)      Nuclear  (a.u.)        Total (a.u.)
 ------------------------------------------------------------------------------------

 L = 1.  Multiply by 2.5417464519 to convert [e a0] to [Debye]
 Dipole X            :          0.0000000            0.0000000            0.0000000
 Dipole Y            :          0.0000000            0.0000000            0.0000000
 Dipole Z            :          0.5310053            0.0022639            0.5332693
 Magnitude           :                                                    0.5332693

 L = 2.  Multiply by 1.3450342976 to convert [e a0^2] to [Debye ang]
 Quadrupole XX       :         -6.1699347            0.0000000           -6.1699347
 Quadrupole XY       :          0.0000000            0.0000000            0.0000000
 Quadrupole XZ       :          0.0000000            0.0000000            0.0000000
 Quadrupole YY       :         -7.3430731            0.0000000           -7.3430731
 Quadrupole YZ       :          0.0000000            0.0000000            0.0000000
 Quadrupole ZZ       :        -36.0768994           32.9126985           -3.1642009
 Traceless XX        :         10.3600344          -10.9708995           -0.6108651
 Traceless YY        :          9.1868960          -10.9708995           -1.7840035
 Traceless ZZ        :        -19.5469303           21.9417990            2.3948687

 ------------------------------------------------------------------------------------
  ==> Computing MBIS Charges <==

  Electron Count from Grid (Expected Number): 12.00000 (12.00000)
  Difference: -0.00000

  MBIS Charges: (a.u.)
   Center  Symbol  Z      Pop.       Charge
      1       N    7    6.673306    0.326694
      2       C    6    5.326693    0.673307

  MBIS Dipoles: [e a0]
   Center  Symbol  Z        X           Y           Z
      1       N    7   -0.000000   -0.000000   -0.244924
      2       C    6   -0.000000   -0.000000    0.102106

  MBIS Quadrupoles: [e a0^2]
   Center  Symbol  Z      XX        XY        XZ        YY        YZ        ZZ
      1       N    7   -3.3649    0.0000   -0.0000   -3.6981   -0.0000   -3.5358
      2       C    6   -2.8051    0.0000    0.0000   -3.6449    0.0000   -3.3989

  MBIS Octupoles: [e a0^3]
   Center  Symbol  Z      XXX       XXY       XXZ       XYY       XYZ       XZZ       YYY       YYZ       YZZ       ZZZ
      1       N    7   -0.0000   -0.0000   -0.1648   -0.0000    0.0000   -0.0000   -0.0000   -0.3462   -0.0000   -0.9068
      2       C    6   -0.0000   -0.0000    0.1711   -0.0000   -0.0000   -0.0000    0.0000    0.2603    0.0000    0.6741

  MBIS Radial Moments:
   Center  Symbol  Z      [a0^2]      [a0^3]      [a0^4]
      1       N    7   10.598795   21.205063   50.620167
      2       C    6    9.848864   21.886628   57.915728

  MBIS Valence Widths: [a0]
   Center  Symbol  Z     Width
      1       N    7    0.422706
      2       C    6    0.478778

*** tstop() called on Mac.lan at Sun Aug 10 18:34:57 2025
Module time:
	user time   =       4.07 seconds =       0.07 minutes
	system time =       1.79 seconds =       0.03 minutes
	total time  =          1 seconds =       0.02 minutes
Total time:
	user time   =      19.81 seconds =       0.33 minutes
	system time =       4.04 seconds =       0.07 minutes
	total time  =          3 seconds =       0.05 minutes

    Psi4 stopped on: Sunday, 10 August 2025 06:34PM
    Psi4 wall time for execution: 0:00:02.32

*** Psi4 exiting successfully. Buy a developer a beer!
