                               Psi4 1.9.1 release

  ==> Input File <==

--------------------------------------------------------------------------
molecule {
1 2
O           0.000000           0.000000           0.000000
C           0.000000           0.000000           0.788320
}

set {
basis              cc-pvtz
reference          uks
maxiter            500
DAMPING_PERCENTAGE 1
E_CONVERGENCE      1.0E-8
D_CONVERGENCE      1.0E-8
DIIS_MAX_VECS      400
MBIS_MAXITER       8000
guess              read
}

E, wfn = energy('b3lyp', restart_file='last_wfn', return_wfn=True)
properties('b3lyp','MBIS_CHARGES', wfn=wfn)
wfn.to_file('last_wfn')
--------------------------------------------------------------------------

    Molecular point group: c2v
  Charge       = 1
  Multiplicity = 2
  Basis Set: CC-PVTZ
    Blend: CC-PVTZ
  Basis Set: (CC-PVTZ AUX)
    Blend: CC-PVTZ-JKFIT
  @DF-UKS Final Energy:  -112.24363395265236
    Total Energy =                       -112.2436339526523597
 Dipole X            :          0.0000000            0.0000000            0.0000000
 Dipole Y            :          0.0000000            0.0000000            0.0000000
 Dipole Z            :          0.8128834           -0.0016237            0.8112598
 Magnitude           :                                                    0.8112598
    Molecular point group: c2v

    Geometry (in Angstrom), charge = 1, multiplicity = 2:

       Center              X                  Y                   Z               Mass
    ------------   -----------------  -----------------  -----------------  -----------------
         O            0.000000000000     0.000000000000    -0.337912800541    15.994914619570
         C            0.000000000000     0.000000000000     0.450407199459    12.000000000000

  Charge       = 1
  Multiplicity = 2
  Basis Set: CC-PVTZ
    Blend: CC-PVTZ
  Basis Set: (CC-PVTZ AUX)
    Blend: CC-PVTZ-JKFIT

    Orbital Energies [Eh]
    ---------------------

    Alpha Occupied:

       1A1   -19.608805     2A1   -10.722061     3A1    -1.733335
       1B2    -1.044712     1B1    -1.044712     4A1    -0.929498
       5A1    -0.870179

    Alpha Virtual:

       2B2    -0.261110     2B1    -0.261110     6A1    -0.099094
       7A1    -0.026413     3B1    -0.022918     3B2    -0.022918
       8A1     0.241994     1A2     0.265468     9A1     0.265468
       4B1     0.324347     4B2     0.324347    10A1     0.495013
       5B2     0.644083     5B1     0.644083    11A1     0.938235
      12A1     1.253454     2A2     1.253454     6B1     1.295023
       6B2     1.295023    13A1     1.365379    14A1     1.745629
       7B2     1.829052     7B1     1.829052     8B2     2.202744
       8B1     2.202744    15A1     2.316967     3A2     2.405595
      16A1     2.405595     9B2     2.560032     9B1     2.560032
       4A2     2.683584    17A1     2.683584    18A1     2.693772
      10B1     3.383112    10B2     3.383112    19A1     3.711448
      11B2     3.846537    11B1     3.846537    12B2     4.826690
      12B1     4.826690    20A1     5.279576    21A1     5.759596
       5A2     5.759596    22A1     5.928731     6A2     5.928733
      23A1     6.082119    13B1     6.152603    13B2     6.152603
      24A1     6.789543    14B2     7.033900    14B1     7.033900
      25A1     9.294954    26A1    16.293442

    Beta Occupied:

       1A1   -19.608904     2A1   -10.697405     3A1    -1.727338
       1B2    -1.034321     1B1    -1.034321     4A1    -0.929349

    Beta Virtual:

       5A1    -0.624101     2B2    -0.219333     2B1    -0.219333
       6A1    -0.087127     3B1    -0.008875     3B2    -0.008875
       7A1     0.014411     8A1     0.261083     1A2     0.284617
       9A1     0.284617     4B1     0.329984     4B2     0.329984
      10A1     0.541878     5B2     0.674751     5B1     0.674751
      11A1     0.948970     2A2     1.256159    12A1     1.256159
       6B1     1.315450     6B2     1.315450    13A1     1.429926
      14A1     1.782503     7B2     1.854813     7B1     1.854813
       8B2     2.236315     8B1     2.236315    15A1     2.376640
       3A2     2.471968    16A1     2.471968     9B2     2.664005
       9B1     2.664005     4A2     2.723652    17A1     2.723655
      18A1     2.788773    10B1     3.401767    10B2     3.401767
      19A1     3.746213    11B2     3.872451    11B1     3.872451
      12B2     4.824773    12B1     4.824773    20A1     5.298273
      21A1     5.760594     5A2     5.760594    22A1     5.929926
       6A2     5.929927    23A1     6.096407    13B1     6.156243
      13B2     6.156243    24A1     6.804697    14B2     7.056469
      14B1     7.056469    25A1     9.310825    26A1    16.325537

    Final Occupation by Irrep:
             A1    A2    B1    B2
    DOCC [     4,    0,    1,    1 ]
    SOCC [     1,    0,    0,    0 ]
    NA   [     5,    0,    1,    1 ]
    NB   [     4,    0,    1,    1 ]

  @DF-UKS Final Energy:  -112.24363393813633

   => Energetics <=

    Nuclear Repulsion Energy =             32.2210601179216596
    One-Electron Energy =                -209.7534254148495734
    Two-Electron Energy =                  76.6958019040496879
    DFT Exchange-Correlation Energy =     -11.4070705452581098
    Empirical Dispersion Energy =           0.0000000000000000
    VV10 Nonlocal Energy =                  0.0000000000000000
    Total Energy =                       -112.2436339381363268

  UHF NO Occupations:
  HONO-2 :    1 B2 1.9991004
  HONO-1 :    1 B1 1.9991004
  HONO-0 :    5 A1 1.0000000
  LUNO+0 :    2 B2 0.0008996
  LUNO+1 :    2 B1 0.0008996
  LUNO+2 :    6 A1 0.0000157
  LUNO+3 :    7 A1 0.0000025

Computation Completed

Properties will be evaluated at   0.000000,   0.000000,   0.000000 [a0]

Properties computed using the B3LYP density matrix

 Multipole Moments:

 ------------------------------------------------------------------------------------
     Multipole            Electronic (a.u.)      Nuclear  (a.u.)        Total (a.u.)
 ------------------------------------------------------------------------------------

 L = 1.  Multiply by 2.5417464519 to convert [e a0] to [Debye]
 Dipole X            :          0.0000000            0.0000000            0.0000000
 Dipole Y            :          0.0000000            0.0000000            0.0000000
 Dipole Z            :          0.8128834           -0.0016237            0.8112598
 Magnitude           :                                                    0.8112598

 L = 2.  Multiply by 1.3450342976 to convert [e a0^2] to [Debye ang]
 Quadrupole XX       :         -5.1618103            0.0000000           -5.1618103
 Quadrupole XY       :          0.0000000            0.0000000            0.0000000
 Quadrupole XZ       :          0.0000000            0.0000000            0.0000000
 Quadrupole YY       :         -5.1618103            0.0000000           -5.1618103
 Quadrupole YZ       :          0.0000000            0.0000000            0.0000000
 Quadrupole ZZ       :        -12.2744324            7.6087977           -4.6656347
 Traceless XX        :          2.3708740           -2.5362659           -0.1653919
 Traceless YY        :          2.3708740           -2.5362659           -0.1653919
 Traceless ZZ        :         -4.7417481            5.0725318            0.3307837

 ------------------------------------------------------------------------------------
  ==> Computing MBIS Charges <==

  Electron Count from Grid (Expected Number): 13.00000 (13.00000)
  Difference:  0.00000

  MBIS Charges: (a.u.)
   Center  Symbol  Z      Pop.       Charge
      1       O    8    8.070748   -0.070748
      2       C    6    4.929254    1.070746

  MBIS Dipoles: [e a0]
   Center  Symbol  Z        X           Y           Z
      1       O    8    0.000000   -0.000000   -0.190478
      2       C    6    0.000000    0.000000    0.045199

  MBIS Quadrupoles: [e a0^2]
   Center  Symbol  Z      XX        XY        XZ        YY        YZ        ZZ
      1       O    8   -3.0497    0.0000    0.0000   -3.0497    0.0000   -3.3573
      2       C    6   -2.1121   -0.0000    0.0000   -2.1121    0.0000   -2.3754

  MBIS Octupoles: [e a0^3]
   Center  Symbol  Z      XXX       XXY       XXZ       XYY       XYZ       XZZ       YYY       YYZ       YZZ       ZZZ
      1       O    8   -0.0000    0.0000   -0.0969   -0.0000    0.0000   -0.0000   -0.0000   -0.0969    0.0000   -0.0388
      2       C    6   -0.0000    0.0000   -0.0444   -0.0000    0.0000    0.0000    0.0000   -0.0444    0.0000   -0.3045

  MBIS Radial Moments:
   Center  Symbol  Z      [a0^2]      [a0^3]      [a0^4]
      1       O    8    9.456774   15.864324   31.898039
      2       C    6    6.599542   12.803382   29.848430

  MBIS Valence Widths: [a0]
   Center  Symbol  Z     Width
      1       O    8    0.350145
      2       C    6    0.407760

*** tstop() called on Mac.lan at Sun Aug 10 18:37:04 2025
Module time:
	user time   =       4.67 seconds =       0.08 minutes
	system time =       2.09 seconds =       0.03 minutes
	total time  =          1 seconds =       0.02 minutes
Total time:
	user time   =      16.10 seconds =       0.27 minutes
	system time =       4.34 seconds =       0.07 minutes
	total time  =          2 seconds =       0.03 minutes

    Psi4 stopped on: Sunday, 10 August 2025 06:37PM
    Psi4 wall time for execution: 0:00:02.02

*** Psi4 exiting successfully. Buy a developer a beer!
