                               Psi4 1.9.1 release

  ==> Input File <==

--------------------------------------------------------------------------
molecule {
1 3
N           0.000000           0.000000           0.000000
C           0.000000           0.000000           1.779483
}

set {
basis              cc-pvtz
reference          uks
maxiter            500
DAMPING_PERCENTAGE 1
E_CONVERGENCE      1.0E-8
D_CONVERGENCE      1.0E-8
DIIS_MAX_VECS      400
MBIS_MAXITER       8000
guess              read
}

E, wfn = energy('b3lyp', restart_file='last_wfn', return_wfn=True)
properties('b3lyp','MBIS_CHARGES', wfn=wfn)
wfn.to_file('last_wfn')
--------------------------------------------------------------------------

    Molecular point group: c2v
  Charge       = 1
  Multiplicity = 3
  Basis Set: CC-PVTZ
    Blend: CC-PVTZ
  Basis Set: (CC-PVTZ AUX)
    Blend: CC-PVTZ-JKFIT
  @DF-UKS Final Energy:   -92.11867942925788
    Total Energy =                        -92.1186794292578810
 Dipole X            :          0.0000000            0.0000000            0.0000000
 Dipole Y            :          0.0000000            0.0000000            0.0000000
 Dipole Z            :          0.5422546            0.0023852            0.5446398
 Magnitude           :                                                    0.5446398
    Molecular point group: c2v

    Geometry (in Angstrom), charge = 1, multiplicity = 3:

       Center              X                  Y                   Z               Mass
    ------------   -----------------  -----------------  -----------------  -----------------
         N            0.000000000000     0.000000000000    -0.821202754581    14.003074004430
         C            0.000000000000     0.000000000000     0.958280245419    12.000000000000

  Charge       = 1
  Multiplicity = 3
  Basis Set: CC-PVTZ
    Blend: CC-PVTZ
  Basis Set: (CC-PVTZ AUX)
    Blend: CC-PVTZ-JKFIT

    Orbital Energies [Eh]
    ---------------------

    Alpha Occupied:

       1A1   -14.844378     2A1   -10.760277     3A1    -1.201515
       4A1    -0.915831     5A1    -0.731653     1B1    -0.719120
       1B2    -0.708110

    Alpha Virtual:

       2B1    -0.493863     2B2    -0.444121     6A1    -0.363859
       7A1     0.014968     3B1     0.034124     3B2     0.054607
       8A1     0.066152     9A1     0.164581     4B1     0.180498
       4B2     0.188976     5B1     0.345069    10A1     0.351436
       1A2     0.351668     5B2     0.367276    11A1     0.489706
      12A1     0.693273     2A2     0.695775    13A1     0.697326
       6B1     0.921084     6B2     0.936751    14A1     1.099267
       7B1     1.572784     7B2     1.614427    15A1     1.828753
      16A1     2.194593     8B1     2.217540     8B2     2.242057
       3A2     2.291837    17A1     2.294998     9B1     2.321078
       9B2     2.321614    10B1     2.498151    10B2     2.518978
      18A1     2.564550     4A2     2.568358    19A1     2.656867
      11B1     2.661384    11B2     2.699033    20A1     3.105035
      21A1     3.382052    12B1     3.459438    12B2     3.459441
       5A2     3.498814    22A1     3.498972    13B1     3.707418
      13B2     3.719482    23A1     3.981495     6A2     3.981606
      24A1     4.012882    14B1     4.256797    14B2     4.266780
      25A1     4.987707    26A1     5.663817

    Beta Occupied:

       1A1   -14.794237     2A1   -10.766729     3A1    -1.080136
       4A1    -0.870496     1B2    -0.646118

    Beta Virtual:

       5A1    -0.561149     1B1    -0.535640     2B2    -0.445145
       2B1    -0.421745     6A1    -0.287893     3B2     0.027517
       7A1     0.033106     3B1     0.040341     8A1     0.074536
       9A1     0.204288     4B2     0.237992     4B1     0.239202
       1A2     0.327657    10A1     0.332488     5B2     0.376408
       5B1     0.385599    11A1     0.537085    12A1     0.730499
       2A2     0.774373    13A1     0.774934     6B2     0.986728
       6B1     0.989272    14A1     1.161395     7B2     1.550608
       7B1     1.577663    15A1     1.869587    16A1     2.230425
       8B2     2.263326     8B1     2.273113     9B2     2.276422
       3A2     2.279143     9B1     2.279728    17A1     2.285758
       4A2     2.509247    18A1     2.520778    10B2     2.569293
      10B1     2.580686    11B2     2.704663    19A1     2.710859
      11B1     2.721870    20A1     3.143890    21A1     3.425770
      12B2     3.573244    12B1     3.573278     5A2     3.600774
      22A1     3.601234    13B2     3.808361    13B1     3.810796
      23A1     4.113357     6A2     4.137825    24A1     4.138438
      14B2     4.388741    14B1     4.391016    25A1     5.068376
      26A1     5.745832

    Final Occupation by Irrep:
             A1    A2    B1    B2
    DOCC [     4,    0,    0,    1 ]
    SOCC [     1,    0,    1,    0 ]
    NA   [     5,    0,    1,    1 ]
    NB   [     4,    0,    0,    1 ]

  @DF-UKS Final Energy:   -92.11867942943280

   => Energetics <=

    Nuclear Repulsion Energy =             12.4898315118155114
    One-Electron Energy =                -144.4085957988410200
    Two-Electron Energy =                  49.1875663614661605
    DFT Exchange-Correlation Energy =      -9.3874815038734578
    Empirical Dispersion Energy =           0.0000000000000000
    VV10 Nonlocal Energy =                  0.0000000000000000
    Total Energy =                        -92.1186794294328024

  UHF NO Occupations:
  HONO-2 :    1 B2 1.5773258
  HONO-1 :    5 A1 1.0000000
  HONO-0 :    1 B1 1.0000000
  LUNO+0 :    2 B2 0.4226742
  LUNO+1 :    6 A1 0.0087940
  LUNO+2 :    7 A1 0.0007645
  LUNO+3 :    8 A1 0.0000014

Computation Completed

Properties will be evaluated at   0.000000,   0.000000,   0.000000 [a0]

Properties computed using the B3LYP density matrix

 Multipole Moments:

 ------------------------------------------------------------------------------------
     Multipole            Electronic (a.u.)      Nuclear  (a.u.)        Total (a.u.)
 ------------------------------------------------------------------------------------

 L = 1.  Multiply by 2.5417464519 to convert [e a0] to [Debye]
 Dipole X            :          0.0000000            0.0000000            0.0000000
 Dipole Y            :          0.0000000            0.0000000            0.0000000
 Dipole Z            :          0.5422546            0.0023852            0.5446398
 Magnitude           :                                                    0.5446398

 L = 2.  Multiply by 1.3450342976 to convert [e a0^2] to [Debye ang]
 Quadrupole XX       :         -6.1986797            0.0000000           -6.1986797
 Quadrupole XY       :          0.0000000            0.0000000            0.0000000
 Quadrupole XZ       :          0.0000000            0.0000000            0.0000000
 Quadrupole YY       :         -7.3719890            0.0000000           -7.3719890
 Quadrupole YZ       :          0.0000000            0.0000000            0.0000000
 Quadrupole ZZ       :        -39.3695008           36.5335071           -2.8359937
 Traceless XX        :         11.4480434          -12.1778357           -0.7297922
 Traceless YY        :         10.2747342          -12.1778357           -1.9031015
 Traceless ZZ        :        -21.7227776           24.3556714            2.6328938

 ------------------------------------------------------------------------------------
  ==> Computing MBIS Charges <==

  Electron Count from Grid (Expected Number): 12.00000 (12.00000)
  Difference: -0.00000

  MBIS Charges: (a.u.)
   Center  Symbol  Z      Pop.       Charge
      1       N    7    6.662151    0.337849
      2       C    6    5.337848    0.662152

  MBIS Dipoles: [e a0]
   Center  Symbol  Z        X           Y           Z
      1       N    7   -0.000000   -0.000000   -0.229640
      2       C    6   -0.000000    0.000000    0.099486

  MBIS Quadrupoles: [e a0^2]
   Center  Symbol  Z      XX        XY        XZ        YY        YZ        ZZ
      1       N    7   -3.3982    0.0000   -0.0000   -3.6443   -0.0000   -3.5087
      2       C    6   -2.8005    0.0000    0.0000   -3.7277    0.0000   -3.3854

  MBIS Octupoles: [e a0^3]
   Center  Symbol  Z      XXX       XXY       XXZ       XYY       XYZ       XZZ       YYY       YYZ       YZZ       ZZZ
      1       N    7   -0.0000   -0.0000   -0.1500   -0.0000   -0.0000   -0.0000   -0.0000   -0.3190    0.0000   -0.8795
      2       C    6   -0.0000   -0.0000    0.1764    0.0000    0.0000   -0.0000    0.0000    0.2286    0.0000    0.7130

  MBIS Radial Moments:
   Center  Symbol  Z      [a0^2]      [a0^3]      [a0^4]
      1       N    7   10.551114   21.104549   50.390860
      2       C    6    9.913620   22.087155   58.621121

  MBIS Valence Widths: [a0]
   Center  Symbol  Z     Width
      1       N    7    0.422106
      2       C    6    0.479621

*** tstop() called on Mac.lan at Sun Aug 10 18:35:09 2025
Module time:
	user time   =       3.71 seconds =       0.06 minutes
	system time =       2.21 seconds =       0.04 minutes
	total time  =          0 seconds =       0.00 minutes
Total time:
	user time   =      22.07 seconds =       0.37 minutes
	system time =       5.16 seconds =       0.09 minutes
	total time  =          2 seconds =       0.03 minutes

    Psi4 stopped on: Sunday, 10 August 2025 06:35PM
    Psi4 wall time for execution: 0:00:02.74

*** Psi4 exiting successfully. Buy a developer a beer!
