                               Psi4 1.9.1 release

  ==> Input File <==

--------------------------------------------------------------------------
molecule {
1 2
H           0.000000           0.000000           0.000000
H           0.000000           0.000000           1.609285
}

set {
basis              cc-pvtz
reference          uks
maxiter            500
DAMPING_PERCENTAGE 1
E_CONVERGENCE      1.0E-8
D_CONVERGENCE      1.0E-8
DIIS_MAX_VECS      400
MBIS_MAXITER       8000
guess              read
}

E, wfn = energy('b3lyp', restart_file='last_wfn', return_wfn=True)
properties('b3lyp','MBIS_CHARGES', wfn=wfn)
wfn.to_file('last_wfn')
--------------------------------------------------------------------------

    Molecular point group: d2h
  Charge       = 1
  Multiplicity = 2
  Basis Set: CC-PVTZ
    Blend: CC-PVTZ
  Basis Set: (CC-PVTZ AUX)
    Blend: CC-PVTZ-JKFIT
  @DF-UKS Final Energy:    -0.59412902248693
    Total Energy =                         -0.5941290224869272
 Dipole X            :          0.0000000            0.0000000            0.0000000
 Dipole Y            :          0.0000000            0.0000000            0.0000000
 Dipole Z            :          0.0000000            0.0000000            0.0000000
 Magnitude           :                                                    0.0000000
    Molecular point group: d2h

    Geometry (in Angstrom), charge = 1, multiplicity = 2:

       Center              X                  Y                   Z               Mass
    ------------   -----------------  -----------------  -----------------  -----------------
         H            0.000000000000     0.000000000000    -0.804642500000     1.007825032230
         H            0.000000000000     0.000000000000     0.804642500000     1.007825032230

  Charge       = 1
  Multiplicity = 2
  Basis Set: CC-PVTZ
    Blend: CC-PVTZ
  Basis Set: (CC-PVTZ AUX)
    Blend: CC-PVTZ-JKFIT

    Orbital Energies [Eh]
    ---------------------

    Alpha Occupied:

       1Ag    -0.770575

    Alpha Virtual:

       1B1u   -0.525179     2Ag    -0.042934     2B1u    0.011285
       1B2u    0.125469     1B3u    0.125469     3Ag     0.191800
       1B3g    0.364559     1B2g    0.364559     3B1u    0.732645
       4Ag     1.705556     4B1u    1.894666     5Ag     2.441130
       2B2u    2.510239     2B3u    2.510239     1B1g    2.710355
       6Ag     2.710356     1Au     2.786279     5B1u    2.786279
       2B2g    2.940214     2B3g    2.940214     3B2u    3.078436
       3B3u    3.078436     6B1u    3.114266     3B3g    3.285456
       3B2g    3.285456     7Ag     3.368557     7B1u    4.112794

    Beta Occupied:

    Beta Virtual:

       1Ag    -0.476816     1B1u   -0.304212     2Ag     0.052315
       2B1u    0.115383     1B3u    0.256124     1B2u    0.256124
       3Ag     0.345330     1B2g    0.489522     1B3g    0.489522
       3B1u    0.864163     4Ag     2.015025     4B1u    2.188395
       5Ag     2.638778     2B2u    2.698960     2B3u    2.698960
       6Ag     2.893845     1B1g    2.893850     5B1u    2.969776
       1Au     2.969780     2B3g    3.157443     2B2g    3.157443
       3B3u    3.330931     3B2u    3.330931     6B1u    3.372732
       3B2g    3.509697     3B3g    3.509697     7Ag     3.621456
       7B1u    4.321398

    Final Occupation by Irrep:
             Ag   B1g   B2g   B3g    Au   B1u   B2u   B3u
    DOCC [     0,    0,    0,    0,    0,    0,    0,    0 ]
    SOCC [     1,    0,    0,    0,    0,    0,    0,    0 ]
    NA   [     1,    0,    0,    0,    0,    0,    0,    0 ]
    NB   [     0,    0,    0,    0,    0,    0,    0,    0 ]

  @DF-UKS Final Energy:    -0.59412902246439

   => Energetics <=

    Nuclear Repulsion Energy =              0.3288275294121302
    One-Electron Energy =                  -0.9019608187314335
    Two-Electron Energy =                   0.2141202317885126
    DFT Exchange-Correlation Energy =      -0.2351159649336014
    Empirical Dispersion Energy =           0.0000000000000000
    VV10 Nonlocal Energy =                  0.0000000000000000
    Total Energy =                         -0.5941290224643921

  UHF NO Occupations:
  HONO-0 :    1 Ag 1.0000000
  LUNO+0 :    2 Ag 0.0000000
  LUNO+1 :    3 Ag 0.0000000
  LUNO+2 :    4 Ag 0.0000000
  LUNO+3 :    5 Ag 0.0000000

Computation Completed

Properties will be evaluated at   0.000000,   0.000000,   0.000000 [a0]

Properties computed using the B3LYP density matrix

 Multipole Moments:

 ------------------------------------------------------------------------------------
     Multipole            Electronic (a.u.)      Nuclear  (a.u.)        Total (a.u.)
 ------------------------------------------------------------------------------------

 L = 1.  Multiply by 2.5417464519 to convert [e a0] to [Debye]
 Dipole X            :          0.0000000            0.0000000            0.0000000
 Dipole Y            :          0.0000000            0.0000000            0.0000000
 Dipole Z            :          0.0000000            0.0000000            0.0000000
 Magnitude           :                                                    0.0000000

 L = 2.  Multiply by 1.3450342976 to convert [e a0^2] to [Debye ang]
 Quadrupole XX       :         -0.7792448            0.0000000           -0.7792448
 Quadrupole XY       :          0.0000000            0.0000000            0.0000000
 Quadrupole XZ       :          0.0000000            0.0000000            0.0000000
 Quadrupole YY       :         -0.7792448            0.0000000           -0.7792448
 Quadrupole YZ       :          0.0000000            0.0000000            0.0000000
 Quadrupole ZZ       :         -2.3303385            4.6241687            2.2938301
 Traceless XX        :          0.5170312           -1.5413896           -1.0243583
 Traceless YY        :          0.5170312           -1.5413896           -1.0243583
 Traceless ZZ        :         -1.0340625            3.0827791            2.0487166

 ------------------------------------------------------------------------------------
  ==> Computing MBIS Charges <==

  Electron Count from Grid (Expected Number):  1.00000 ( 1.00000)
  Difference: -0.00000

  MBIS Charges: (a.u.)
   Center  Symbol  Z      Pop.       Charge
      1       H    1    0.500000    0.500000
      2       H    1    0.500000    0.500000

  MBIS Dipoles: [e a0]
   Center  Symbol  Z        X           Y           Z
      1       H    1    0.000000    0.000000   -0.135690
      2       H    1    0.000000   -0.000000    0.135690

  MBIS Quadrupoles: [e a0^2]
   Center  Symbol  Z      XX        XY        XZ        YY        YZ        ZZ
      1       H    1   -0.3896   -0.0000    0.0000   -0.3896   -0.0000   -0.4218
      2       H    1   -0.3896   -0.0000    0.0000   -0.3896   -0.0000   -0.4218

  MBIS Octupoles: [e a0^3]
   Center  Symbol  Z      XXX       XXY       XXZ       XYY       XYZ       XZZ       YYY       YYZ       YZZ       ZZZ
      1       H    1    0.0000    0.0000   -0.1169    0.0000    0.0000    0.0000    0.0000   -0.1169    0.0000   -0.2937
      2       H    1    0.0000   -0.0000    0.1169    0.0000   -0.0000    0.0000   -0.0000    0.1169    0.0000    0.2937

  MBIS Radial Moments:
   Center  Symbol  Z      [a0^2]      [a0^3]      [a0^4]
      1       H    1    1.201019    2.586370    6.597319
      2       H    1    1.201019    2.586370    6.597319

  MBIS Valence Widths: [a0]
   Center  Symbol  Z     Width
      1       H    1    0.454310
      2       H    1    0.454310

*** tstop() called on Mac.lan at Sun Aug 10 18:11:57 2025
Module time:
	user time   =       0.41 seconds =       0.01 minutes
	system time =       1.49 seconds =       0.02 minutes
	total time  =          0 seconds =       0.00 minutes
Total time:
	user time   =       1.02 seconds =       0.02 minutes
	system time =       3.69 seconds =       0.06 minutes
	total time  =          1 seconds =       0.02 minutes

    Psi4 stopped on: Sunday, 10 August 2025 06:11PM
    Psi4 wall time for execution: 0:00:00.62

*** Psi4 exiting successfully. Buy a developer a beer!
