                               Psi4 1.9.1 release

  ==> Input File <==

--------------------------------------------------------------------------
molecule {
1 1
O           0.000000           0.000000           0.000000
N           0.000000           0.000000           1.100413
}

set {
basis              cc-pvtz
reference          uks
maxiter            500
DAMPING_PERCENTAGE 1
E_CONVERGENCE      1.0E-8
D_CONVERGENCE      1.0E-8
DIIS_MAX_VECS      400
MBIS_MAXITER       8000
guess              SAP
}

E, wfn = energy('b3lyp', return_wfn=True)
properties('b3lyp','MBIS_CHARGES', wfn=wfn)
wfn.to_file('last_wfn')
--------------------------------------------------------------------------

    Molecular point group: c2v
  Charge       = 1
  Multiplicity = 1
  Basis Set: CC-PVTZ
    Blend: CC-PVTZ
  Basis Set: (CC-PVTZ AUX)
    Blend: CC-PVTZ-JKFIT
  @DF-UKS Final Energy:  -129.58125753402868
    Total Energy =                       -129.5812575340286799
 Dipole X            :          0.0000000            0.0000000            0.0000000
 Dipole Y            :          0.0000000            0.0000000            0.0000000
 Dipole Z            :          0.1959717           -0.0041724            0.1917993
 Magnitude           :                                                    0.1917993
    Molecular point group: c2v

    Geometry (in Angstrom), charge = 1, multiplicity = 1:

       Center              X                  Y                   Z               Mass
    ------------   -----------------  -----------------  -----------------  -----------------
         O            0.000000000000     0.000000000000    -0.513673262150    15.994914619570
         N            0.000000000000     0.000000000000     0.586739737850    14.003074004430

  Charge       = 1
  Multiplicity = 1
  Basis Set: CC-PVTZ
    Blend: CC-PVTZ
  Basis Set: (CC-PVTZ AUX)
    Blend: CC-PVTZ-JKFIT

    Orbital Energies [Eh]
    ---------------------

    Alpha Occupied:

       1A1   -19.769821     2A1   -14.971283     3A1    -1.747000
       4A1    -1.101502     1B2    -0.967768     1B1    -0.967768
       5A1    -0.917307

    Alpha Virtual:

       2B2    -0.511644     2B1    -0.511644     6A1    -0.066419
       3B2     0.086643     3B1     0.086643     7A1     0.117957
       8A1     0.173533     9A1     0.231400     4B1     0.282534
       4B2     0.282534     1A2     0.533852    10A1     0.533852
       5B2     0.759912     5B1     0.759912    11A1     0.829471
       2A2     1.148408    12A1     1.148409    13A1     1.293556
       6B2     1.639373     6B1     1.639373    14A1     1.852567
       7B2     2.390710     7B1     2.390710    15A1     2.637451
       8B1     3.136176     8B2     3.136176     3A2     3.338721
      16A1     3.338721     9B2     3.349448     9B1     3.349448
      17A1     3.373164    10B1     3.618405    10B2     3.618405
       4A2     3.924169    18A1     3.924171    19A1     3.925483
      11B2     4.322429    11B1     4.322429    20A1     4.487916
      12B1     4.628627    12B2     4.628627     5A2     5.194074
      21A1     5.194075    22A1     5.713195     6A2     5.713199
      23A1     5.989592    13B1     6.016982    13B2     6.016982
      14B2     6.626588    14B1     6.626588    24A1     6.629365
      25A1     6.756558    26A1    14.161330

    Beta Occupied:

       1A1   -19.769821     2A1   -14.971283     3A1    -1.747000
       4A1    -1.101502     1B2    -0.967768     1B1    -0.967768
       5A1    -0.917307

    Beta Virtual:

       2B2    -0.511644     2B1    -0.511644     6A1    -0.066419
       3B2     0.086643     3B1     0.086643     7A1     0.117957
       8A1     0.173533     9A1     0.231400     4B1     0.282534
       4B2     0.282534     1A2     0.533852    10A1     0.533852
       5B2     0.759912     5B1     0.759912    11A1     0.829471
       2A2     1.148408    12A1     1.148409    13A1     1.293556
       6B2     1.639373     6B1     1.639373    14A1     1.852567
       7B2     2.390710     7B1     2.390710    15A1     2.637451
       8B1     3.136176     8B2     3.136176     3A2     3.338721
      16A1     3.338721     9B2     3.349448     9B1     3.349448
      17A1     3.373164    10B1     3.618405    10B2     3.618405
       4A2     3.924169    18A1     3.924171    19A1     3.925483
      11B2     4.322429    11B1     4.322429    20A1     4.487916
      12B1     4.628627    12B2     4.628627     5A2     5.194074
      21A1     5.194075    22A1     5.713195     6A2     5.713199
      23A1     5.989592    13B1     6.016982    13B2     6.016982
      14B2     6.626588    14B1     6.626588    24A1     6.629365
      25A1     6.756558    26A1    14.161330

    Final Occupation by Irrep:
             A1    A2    B1    B2
    DOCC [     5,    0,    1,    1 ]
    SOCC [     0,    0,    0,    0 ]
    NA   [     5,    0,    1,    1 ]
    NB   [     5,    0,    1,    1 ]

  @DF-UKS Final Energy:  -129.58125753402868

   => Energetics <=

    Nuclear Repulsion Energy =             26.9298198017653370
    One-Electron Energy =                -223.4494710411144069
    Two-Electron Energy =                  79.0207844316701227
    DFT Exchange-Correlation Energy =     -12.0823907263497414
    Empirical Dispersion Energy =           0.0000000000000000
    VV10 Nonlocal Energy =                  0.0000000000000000
    Total Energy =                       -129.5812575340286799

  UHF NO Occupations:
  HONO-2 :    1 B1 2.0000000
  HONO-1 :    4 A1 2.0000000
  HONO-0 :    5 A1 2.0000000
  LUNO+0 :    6 A1 0.0000000
  LUNO+1 :    7 A1 0.0000000
  LUNO+2 :    8 A1 0.0000000
  LUNO+3 :    9 A1 0.0000000

Computation Completed

Properties will be evaluated at   0.000000,   0.000000,   0.000000 [a0]

Properties computed using the B3LYP density matrix

 Multipole Moments:

 ------------------------------------------------------------------------------------
     Multipole            Electronic (a.u.)      Nuclear  (a.u.)        Total (a.u.)
 ------------------------------------------------------------------------------------

 L = 1.  Multiply by 2.5417464519 to convert [e a0] to [Debye]
 Dipole X            :          0.0000000            0.0000000            0.0000000
 Dipole Y            :          0.0000000            0.0000000            0.0000000
 Dipole Z            :          0.1959717           -0.0041724            0.1917993
 Magnitude           :                                                    0.1917993

 L = 2.  Multiply by 1.3450342976 to convert [e a0^2] to [Debye ang]
 Quadrupole XX       :         -5.8822872            0.0000000           -5.8822872
 Quadrupole XY       :          0.0000000            0.0000000            0.0000000
 Quadrupole XZ       :          0.0000000            0.0000000            0.0000000
 Quadrupole YY       :         -5.8822872            0.0000000           -5.8822872
 Quadrupole YZ       :          0.0000000            0.0000000            0.0000000
 Quadrupole ZZ       :        -21.4573774           16.1438071           -5.3135703
 Traceless XX        :          5.1916967           -5.3812690           -0.1895723
 Traceless YY        :          5.1916967           -5.3812690           -0.1895723
 Traceless ZZ        :        -10.3833935           10.7625380            0.3791446

 ------------------------------------------------------------------------------------
  ==> Computing MBIS Charges <==

  Electron Count from Grid (Expected Number): 14.00000 (14.00000)
  Difference:  0.00000

  MBIS Charges: (a.u.)
   Center  Symbol  Z      Pop.       Charge
      1       O    8    7.638268    0.361732
      2       N    7    6.361733    0.638267

  MBIS Dipoles: [e a0]
   Center  Symbol  Z        X           Y           Z
      1       O    8   -0.000000   -0.000000   -0.098661
      2       N    7    0.000000    0.000000   -0.066101

  MBIS Quadrupoles: [e a0^2]
   Center  Symbol  Z      XX        XY        XZ        YY        YZ        ZZ
      1       O    8   -3.0034   -0.0000    0.0000   -3.0034    0.0000   -3.2053
      2       N    7   -2.8789   -0.0000   -0.0000   -2.8789    0.0000   -3.2788

  MBIS Octupoles: [e a0^3]
   Center  Symbol  Z      XXX       XXY       XXZ       XYY       XYZ       XZZ       YYY       YYZ       YZZ       ZZZ
      1       O    8    0.0000   -0.0000   -0.0737    0.0000   -0.0000    0.0000   -0.0000   -0.0737   -0.0000   -0.2179
      2       N    7    0.0000   -0.0000    0.0209    0.0000    0.0000    0.0000   -0.0000    0.0209   -0.0000   -0.0122

  MBIS Radial Moments:
   Center  Symbol  Z      [a0^2]      [a0^3]      [a0^4]
      1       O    8    9.211974   15.764438   32.305927
      2       N    7    9.036654   17.089056   38.538951

  MBIS Valence Widths: [a0]
   Center  Symbol  Z     Width
      1       O    8    0.359276
      2       N    7    0.402147

*** tstop() called on Mac.lan at Sun Aug 10 18:41:55 2025
Module time:
	user time   =      13.55 seconds =       0.23 minutes
	system time =       1.86 seconds =       0.03 minutes
	total time  =          1 seconds =       0.02 minutes
Total time:
	user time   =      26.90 seconds =       0.45 minutes
	system time =       4.20 seconds =       0.07 minutes
	total time  =          3 seconds =       0.05 minutes

    Psi4 stopped on: Sunday, 10 August 2025 06:41PM
    Psi4 wall time for execution: 0:00:02.97

*** Psi4 exiting successfully. Buy a developer a beer!
