                               Psi4 1.9.1 release

  ==> Input File <==

--------------------------------------------------------------------------
molecule {
1 4
C           0.000000           0.000000           0.000000
C           0.000000           0.000000           1.796517
}

set {
basis              cc-pvtz
reference          uks
maxiter            500
DAMPING_PERCENTAGE 1
E_CONVERGENCE      1.0E-8
D_CONVERGENCE      1.0E-8
DIIS_MAX_VECS      400
MBIS_MAXITER       8000
guess              read
}

E, wfn = energy('b3lyp', restart_file='last_wfn', return_wfn=True)
properties('b3lyp','MBIS_CHARGES', wfn=wfn)
wfn.to_file('last_wfn')
--------------------------------------------------------------------------

    Molecular point group: d2h
  Charge       = 1
  Multiplicity = 4
  Basis Set: CC-PVTZ
    Blend: CC-PVTZ
  Basis Set: (CC-PVTZ AUX)
    Blend: CC-PVTZ-JKFIT
  @DF-UKS Final Energy:   -75.45446229871760
    Total Energy =                        -75.4544622987176012
 Dipole X            :          0.0000000            0.0000000            0.0000000
 Dipole Y            :          0.0000000            0.0000000            0.0000000
 Dipole Z            :          0.0000000            0.0000000            0.0000000
 Magnitude           :                                                    0.0000000
    Molecular point group: d2h

    Geometry (in Angstrom), charge = 1, multiplicity = 4:

       Center              X                  Y                   Z               Mass
    ------------   -----------------  -----------------  -----------------  -----------------
         C            0.000000000000     0.000000000000    -0.898258500000    12.000000000000
         C            0.000000000000     0.000000000000     0.898258500000    12.000000000000

  Charge       = 1
  Multiplicity = 4
  Basis Set: CC-PVTZ
    Blend: CC-PVTZ
  Basis Set: (CC-PVTZ AUX)
    Blend: CC-PVTZ-JKFIT

    Orbital Energies [Eh]
    ---------------------

    Alpha Occupied:

       1Ag   -10.724413     1B1u  -10.724254     2Ag    -1.056730
       2B1u   -0.861517     3Ag    -0.674879     1B2u   -0.635450
       1B3u   -0.635450

    Alpha Virtual:

       1B3g   -0.474110     1B2g   -0.474110     3B1u   -0.299704
       4B1u    0.017387     2B2u    0.020661     2B3u    0.020661
       4Ag     0.044604     5Ag     0.056002     2B3g    0.094034
       2B2g    0.094034     6Ag     0.269875     1B1g    0.269876
       3B3u    0.277070     3B2u    0.277070     5B1u    0.337829
       6B1u    0.452555     1Au     0.452555     7Ag     0.673288
       3B2g    0.727366     3B3g    0.727366     7B1u    0.823731
       4B2u    1.509806     4B3u    1.509806     8Ag     1.564089
       4B3g    1.637970     4B2g    1.637970     5B2u    2.054794
       5B3u    2.054794     9Ag     2.071509     8B1u    2.077083
      10Ag     2.093950     2B1g    2.093950     6B2u    2.255606
       6B3u    2.255606     5B3g    2.332992     5B2g    2.332992
       9B1u    2.483739     2Au     2.483742    11Ag     2.508504
       3B1g    2.508513     6B3g    2.626832     6B2g    2.626832
       7B2u    2.655828     7B3u    2.655828    10B1u    2.658076
       3Au     2.658083    11B1u    2.693478    12Ag     3.056779
      12B1u    3.058634     7B2g    3.217172     7B3g    3.217172
      13Ag     3.601718    13B1u    5.023806

    Beta Occupied:

       1Ag   -10.700293     1B1u  -10.700274     2Ag    -0.963541
       2B1u   -0.749693

    Beta Virtual:

       3Ag    -0.509498     1B2u   -0.488719     1B3u   -0.488719
       1B3g   -0.375991     1B2g   -0.375991     3B1u   -0.216712
       4B1u    0.048357     2B2u    0.049896     2B3u    0.049896
       4Ag     0.079305     5Ag     0.084653     2B2g    0.116755
       2B3g    0.116755     1B1g    0.317905     6Ag     0.317905
       3B3u    0.335450     3B2u    0.335450     5B1u    0.367088
       1Au     0.497142     6B1u    0.497142     7Ag     0.732717
       3B2g    0.774193     3B3g    0.774193     7B1u    0.866809
       4B2u    1.566047     4B3u    1.566047     8Ag     1.623752
       4B3g    1.692305     4B2g    1.692305     5B2u    2.115682
       5B3u    2.115682     9Ag     2.133656     8B1u    2.138136
      10Ag     2.161093     2B1g    2.161095     6B2u    2.319098
       6B3u    2.319098     5B3g    2.396065     5B2g    2.396065
       9B1u    2.549846     2Au     2.549849    11Ag     2.588836
       3B1g    2.588845     6B3g    2.702455     6B2g    2.702455
      10B1u    2.736743     3Au     2.736751     7B2u    2.740565
       7B3u    2.740565    11B1u    2.771481    12B1u    3.115783
      12Ag     3.127843     7B2g    3.286740     7B3g    3.286740
      13Ag     3.656808    13B1u    5.071191

    Final Occupation by Irrep:
             Ag   B1g   B2g   B3g    Au   B1u   B2u   B3u
    DOCC [     2,    0,    0,    0,    0,    2,    0,    0 ]
    SOCC [     1,    0,    0,    0,    0,    0,    1,    1 ]
    NA   [     3,    0,    0,    0,    0,    2,    1,    1 ]
    NB   [     2,    0,    0,    0,    0,    2,    0,    0 ]

  @DF-UKS Final Energy:   -75.45446229857686

   => Energetics <=

    Nuclear Repulsion Energy =             10.6040630754509948
    One-Electron Energy =                -117.8068229953126007
    Two-Electron Energy =                  39.8997646660819711
    DFT Exchange-Correlation Energy =      -8.1514670447972346
    Empirical Dispersion Energy =           0.0000000000000000
    VV10 Nonlocal Energy =                  0.0000000000000000
    Total Energy =                        -75.4544622985768711

  UHF NO Occupations:
  HONO-2 :    1B3u 1.0000000
  HONO-1 :    1B2u 1.0000000
  HONO-0 :    3 Ag 1.0000000
  LUNO+0 :    3B1u 0.0019630
  LUNO+1 :    4 Ag 0.0001686
  LUNO+2 :    4B1u 0.0000008
  LUNO+3 :    5 Ag 0.0000006

Computation Completed

Properties will be evaluated at   0.000000,   0.000000,   0.000000 [a0]

Properties computed using the B3LYP density matrix

 Multipole Moments:

 ------------------------------------------------------------------------------------
     Multipole            Electronic (a.u.)      Nuclear  (a.u.)        Total (a.u.)
 ------------------------------------------------------------------------------------

 L = 1.  Multiply by 2.5417464519 to convert [e a0] to [Debye]
 Dipole X            :          0.0000000            0.0000000            0.0000000
 Dipole Y            :          0.0000000            0.0000000            0.0000000
 Dipole Z            :          0.0000000            0.0000000            0.0000000
 Magnitude           :                                                    0.0000000

 L = 2.  Multiply by 1.3450342976 to convert [e a0^2] to [Debye ang]
 Quadrupole XX       :         -6.8800988            0.0000000           -6.8800988
 Quadrupole XY       :          0.0000000            0.0000000            0.0000000
 Quadrupole XZ       :          0.0000000            0.0000000            0.0000000
 Quadrupole YY       :         -6.8800988            0.0000000           -6.8800988
 Quadrupole YZ       :          0.0000000            0.0000000            0.0000000
 Quadrupole ZZ       :        -38.0141472           34.5765495           -3.4375977
 Traceless XX        :         10.3780161          -11.5255165           -1.1475004
 Traceless YY        :         10.3780161          -11.5255165           -1.1475004
 Traceless ZZ        :        -20.7560322           23.0510330            2.2950008

 ------------------------------------------------------------------------------------
  ==> Computing MBIS Charges <==

  Electron Count from Grid (Expected Number): 11.00000 (11.00000)
  Difference: -0.00000

  MBIS Charges: (a.u.)
   Center  Symbol  Z      Pop.       Charge
      1       C    6    5.500000    0.500000
      2       C    6    5.500000    0.500000

  MBIS Dipoles: [e a0]
   Center  Symbol  Z        X           Y           Z
      1       C    6   -0.000000    0.000000   -0.178109
      2       C    6   -0.000000    0.000000    0.178109

  MBIS Quadrupoles: [e a0^2]
   Center  Symbol  Z      XX        XY        XZ        YY        YZ        ZZ
      1       C    6   -3.4400    0.0000    0.0000   -3.4400   -0.0000   -3.7642
      2       C    6   -3.4400    0.0000   -0.0000   -3.4400    0.0000   -3.7642

  MBIS Octupoles: [e a0^3]
   Center  Symbol  Z      XXX       XXY       XXZ       XYY       XYZ       XZZ       YYY       YYZ       YZZ       ZZZ
      1       C    6   -0.0000    0.0000   -0.2747   -0.0000    0.0000   -0.0000    0.0000   -0.2747    0.0000   -0.8966
      2       C    6   -0.0000   -0.0000    0.2747   -0.0000   -0.0000   -0.0000    0.0000    0.2747    0.0000    0.8966

  MBIS Radial Moments:
   Center  Symbol  Z      [a0^2]      [a0^3]      [a0^4]
      1       C    6   10.644254   24.027526   64.546049
      2       C    6   10.644254   24.027526   64.546049

  MBIS Valence Widths: [a0]
   Center  Symbol  Z     Width
      1       C    6    0.486761
      2       C    6    0.486761

*** tstop() called on Mac.lan at Sun Aug 10 18:23:14 2025
Module time:
	user time   =       3.57 seconds =       0.06 minutes
	system time =       2.39 seconds =       0.04 minutes
	total time  =          1 seconds =       0.02 minutes
Total time:
	user time   =      18.46 seconds =       0.31 minutes
	system time =       4.11 seconds =       0.07 minutes
	total time  =          3 seconds =       0.05 minutes

    Psi4 stopped on: Sunday, 10 August 2025 06:23PM
    Psi4 wall time for execution: 0:00:02.24

*** Psi4 exiting successfully. Buy a developer a beer!
