                               Psi4 1.9.1 release

  ==> Input File <==

--------------------------------------------------------------------------
molecule {
1 2
N           0.000000           0.000000           0.000000
N           0.000000           0.000000           1.413660
}

set {
basis              cc-pvtz
reference          uks
maxiter            500
DAMPING_PERCENTAGE 1
E_CONVERGENCE      1.0E-8
D_CONVERGENCE      1.0E-8
DIIS_MAX_VECS      400
MBIS_MAXITER       8000
guess              read
}

E, wfn = energy('b3lyp', restart_file='last_wfn', return_wfn=True)
properties('b3lyp','MBIS_CHARGES', wfn=wfn)
wfn.to_file('last_wfn')
--------------------------------------------------------------------------

    Molecular point group: d2h
  Charge       = 1
  Multiplicity = 2
  Basis Set: CC-PVTZ
    Blend: CC-PVTZ
  Basis Set: (CC-PVTZ AUX)
    Blend: CC-PVTZ-JKFIT
  @DF-UKS Final Energy:  -108.86727252172477
    Total Energy =                       -108.8672725217247717
 Dipole X            :          0.0000000            0.0000000            0.0000000
 Dipole Y            :          0.0000000            0.0000000            0.0000000
 Dipole Z            :          0.0000000            0.0000000            0.0000000
 Magnitude           :                                                    0.0000000
    Molecular point group: d2h

    Geometry (in Angstrom), charge = 1, multiplicity = 2:

       Center              X                  Y                   Z               Mass
    ------------   -----------------  -----------------  -----------------  -----------------
         N            0.000000000000     0.000000000000    -0.706830000000    14.003074004430
         N            0.000000000000     0.000000000000     0.706830000000    14.003074004430

  Charge       = 1
  Multiplicity = 2
  Basis Set: CC-PVTZ
    Blend: CC-PVTZ
  Basis Set: (CC-PVTZ AUX)
    Blend: CC-PVTZ-JKFIT

    Orbital Energies [Eh]
    ---------------------

    Alpha Occupied:

       1Ag   -14.951605     1B1u  -14.951327     2Ag    -1.386308
       2B1u   -1.067322     3Ag    -0.872455     1B2u   -0.788174
       1B3u   -0.788174

    Alpha Virtual:

       1B3g   -0.541159     1B2g   -0.541159     3B1u   -0.260656
       4B1u    0.086074     2B2u    0.107564     2B3u    0.107564
       4Ag     0.127707     5Ag     0.153915     2B2g    0.208572
       2B3g    0.208572     1B1g    0.521041     6Ag     0.521041
       3B2u    0.550827     3B3u    0.550827     5B1u    0.551322
       1Au     0.813059     6B1u    0.813059     7Ag     1.158059
       3B2g    1.209464     3B3g    1.209464     7B1u    1.263642
       4B3u    2.281545     4B2u    2.281545     8Ag     2.365908
       4B2g    2.489899     4B3g    2.489899     5B2u    3.085192
       5B3u    3.085192     9Ag     3.085694     2B1g    3.085694
       8B1u    3.151043    10Ag     3.171022     6B3u    3.356816
       6B2u    3.356816     5B2g    3.517766     5B3g    3.517766
       9B1u    3.840439     2Au     3.840441    11Ag     3.911330
       3B1g    3.911341    10B1u    3.941861     6B2g    4.092285
       6B3g    4.092285    11B1u    4.102125     3Au     4.102135
       7B2u    4.150426     7B3u    4.150426    12B1u    4.438901
      12Ag     4.673486     7B2g    4.935068     7B3g    4.935068
      13Ag     5.158433    13B1u    8.222257

    Beta Occupied:

       1Ag   -14.939292     1B1u  -14.939128     2Ag    -1.354299
       2B1u   -0.992867     1B2u   -0.776147     1B3u   -0.776147

    Beta Virtual:

       3Ag    -0.692317     1B3g   -0.523600     1B2g   -0.523600
       3B1u   -0.204785     2B2u    0.111428     2B3u    0.111428
       4B1u    0.123131     4Ag     0.158058     5Ag     0.166320
       2B2g    0.212726     2B3g    0.212726     6Ag     0.523771
       1B1g    0.523771     5B1u    0.561759     3B2u    0.581481
       3B3u    0.581481     6B1u    0.818707     1Au     0.818707
       7Ag     1.198317     3B2g    1.238447     3B3g    1.238447
       7B1u    1.306142     4B3u    2.295760     4B2u    2.295760
       8Ag     2.422061     4B2g    2.497252     4B3g    2.497252
       9Ag     3.112932     2B1g    3.112932     5B2u    3.116247
       5B3u    3.116247     8B1u    3.195387    10Ag     3.219826
       6B3u    3.359964     6B2u    3.359964     5B2g    3.520851
       5B3g    3.520851     9B1u    3.845119     2Au     3.845122
      11Ag     3.917330     3B1g    3.917341    10B1u    4.002878
      11B1u    4.128203     3Au     4.128212     6B2g    4.137835
       6B3g    4.137835     7B2u    4.205023     7B3u    4.205023
      12B1u    4.498113    12Ag     4.724071     7B2g    4.980017
       7B3g    4.980017    13Ag     5.202053    13B1u    8.247081

    Final Occupation by Irrep:
             Ag   B1g   B2g   B3g    Au   B1u   B2u   B3u
    DOCC [     2,    0,    0,    0,    0,    2,    1,    1 ]
    SOCC [     1,    0,    0,    0,    0,    0,    0,    0 ]
    NA   [     3,    0,    0,    0,    0,    2,    1,    1 ]
    NB   [     2,    0,    0,    0,    0,    2,    1,    1 ]

  @DF-UKS Final Energy:  -108.86727252176506

   => Energetics <=

    Nuclear Repulsion Energy =             18.3422345704271272
    One-Electron Energy =                -178.2467288301455710
    Two-Electron Energy =                  61.5680686352925406
    DFT Exchange-Correlation Energy =     -10.5308468973391633
    Empirical Dispersion Energy =           0.0000000000000000
    VV10 Nonlocal Energy =                  0.0000000000000000
    Total Energy =                       -108.8672725217650452

  UHF NO Occupations:
  HONO-2 :    2 Ag 1.9998138
  HONO-1 :    2B1u 1.9962400
  HONO-0 :    3 Ag 1.0000000
  LUNO+0 :    3B1u 0.0037600
  LUNO+1 :    4 Ag 0.0001862
  LUNO+2 :    2B2u 0.0001063
  LUNO+3 :    2B3u 0.0001063

Computation Completed

Properties will be evaluated at   0.000000,   0.000000,   0.000000 [a0]

Properties computed using the B3LYP density matrix

 Multipole Moments:

 ------------------------------------------------------------------------------------
     Multipole            Electronic (a.u.)      Nuclear  (a.u.)        Total (a.u.)
 ------------------------------------------------------------------------------------

 L = 1.  Multiply by 2.5417464519 to convert [e a0] to [Debye]
 Dipole X            :          0.0000000            0.0000000            0.0000000
 Dipole Y            :          0.0000000            0.0000000            0.0000000
 Dipole Z            :          0.0000000            0.0000000            0.0000000
 Magnitude           :                                                    0.0000000

 L = 2.  Multiply by 1.3450342976 to convert [e a0^2] to [Debye ang]
 Quadrupole XX       :         -6.7184473            0.0000000           -6.7184473
 Quadrupole XY       :          0.0000000            0.0000000            0.0000000
 Quadrupole XZ       :          0.0000000            0.0000000            0.0000000
 Quadrupole YY       :         -6.7184473            0.0000000           -6.7184473
 Quadrupole YZ       :          0.0000000            0.0000000            0.0000000
 Quadrupole ZZ       :        -28.2957164           24.9778882           -3.3178281
 Traceless XX        :          7.1924230           -8.3259627           -1.1335397
 Traceless YY        :          7.1924230           -8.3259627           -1.1335397
 Traceless ZZ        :        -14.3848461           16.6519255            2.2670794

 ------------------------------------------------------------------------------------
  ==> Computing MBIS Charges <==

  Electron Count from Grid (Expected Number): 13.00000 (13.00000)
  Difference:  0.00000

  MBIS Charges: (a.u.)
   Center  Symbol  Z      Pop.       Charge
      1       N    7    6.500000    0.500000
      2       N    7    6.500000    0.500000

  MBIS Dipoles: [e a0]
   Center  Symbol  Z        X           Y           Z
      1       N    7   -0.000000   -0.000000   -0.287444
      2       N    7    0.000000   -0.000000    0.287444

  MBIS Quadrupoles: [e a0^2]
   Center  Symbol  Z      XX        XY        XZ        YY        YZ        ZZ
      1       N    7   -3.3592    0.0000   -0.0000   -3.3592   -0.0000   -3.3189
      2       N    7   -3.3592    0.0000    0.0000   -3.3592    0.0000   -3.3189

  MBIS Octupoles: [e a0^3]
   Center  Symbol  Z      XXX       XXY       XXZ       XYY       XYZ       XZZ       YYY       YYZ       YZZ       ZZZ
      1       N    7   -0.0000    0.0000   -0.3574   -0.0000   -0.0000    0.0000   -0.0000   -0.3574    0.0000   -0.9234
      2       N    7   -0.0000    0.0000    0.3574   -0.0000    0.0000    0.0000   -0.0000    0.3574    0.0000    0.9234

  MBIS Radial Moments:
   Center  Symbol  Z      [a0^2]      [a0^3]      [a0^4]
      1       N    7   10.037317   19.831488   46.709236
      2       N    7   10.037317   19.831488   46.709236

  MBIS Valence Widths: [a0]
   Center  Symbol  Z     Width
      1       N    7    0.418754
      2       N    7    0.418754

*** tstop() called on Mac.lan at Sun Aug 10 18:25:35 2025
Module time:
	user time   =       3.90 seconds =       0.07 minutes
	system time =       1.83 seconds =       0.03 minutes
	total time  =          0 seconds =       0.00 minutes
Total time:
	user time   =      17.35 seconds =       0.29 minutes
	system time =       4.16 seconds =       0.07 minutes
	total time  =          2 seconds =       0.03 minutes

    Psi4 stopped on: Sunday, 10 August 2025 06:25PM
    Psi4 wall time for execution: 0:00:02.10

*** Psi4 exiting successfully. Buy a developer a beer!
