                               Psi4 1.9.1 release

  ==> Input File <==

--------------------------------------------------------------------------
molecule {
1 1
O           0.000000           0.000000           0.000000
N           0.000000           0.000000           0.886803
}

set {
basis              cc-pvtz
reference          uks
maxiter            500
DAMPING_PERCENTAGE 1
E_CONVERGENCE      1.0E-8
D_CONVERGENCE      1.0E-8
DIIS_MAX_VECS      400
MBIS_MAXITER       8000
guess              read
}

E, wfn = energy('b3lyp', restart_file='last_wfn', return_wfn=True)
properties('b3lyp','MBIS_CHARGES', wfn=wfn)
wfn.to_file('last_wfn')
--------------------------------------------------------------------------

    Molecular point group: c2v
  Charge       = 1
  Multiplicity = 1
  Basis Set: CC-PVTZ
    Blend: CC-PVTZ
  Basis Set: (CC-PVTZ AUX)
    Blend: CC-PVTZ-JKFIT
  @DF-UKS Final Energy:  -129.44302172469318
    Total Energy =                       -129.4430217246931818
 Dipole X            :          0.0000000            0.0000000            0.0000000
 Dipole Y            :          0.0000000            0.0000000            0.0000000
 Dipole Z            :          0.0098239           -0.0033625            0.0064615
 Magnitude           :                                                    0.0064615
    Molecular point group: c2v

    Geometry (in Angstrom), charge = 1, multiplicity = 1:

       Center              X                  Y                   Z               Mass
    ------------   -----------------  -----------------  -----------------  -----------------
         O            0.000000000000     0.000000000000    -0.413960022187    15.994914619570
         N            0.000000000000     0.000000000000     0.472842977813    14.003074004430

  Charge       = 1
  Multiplicity = 1
  Basis Set: CC-PVTZ
    Blend: CC-PVTZ
  Basis Set: (CC-PVTZ AUX)
    Blend: CC-PVTZ-JKFIT

    Orbital Energies [Eh]
    ---------------------

    Alpha Occupied:

       1A1   -19.757669     2A1   -14.908228     3A1    -1.945426
       1B2    -1.098707     1B1    -1.098707     4A1    -1.082595
       5A1    -0.923613

    Alpha Virtual:

       2B1    -0.390938     2B2    -0.390938     6A1    -0.061087
       3B2     0.053633     3B1     0.053633     7A1     0.114128
       8A1     0.196712     4B2     0.294837     4B1     0.294837
       9A1     0.505736     1A2     0.505736    10A1     0.634701
      11A1     0.850447     5B1     0.897330     5B2     0.897330
      12A1     1.222959     2A2     1.222959    13A1     1.564116
       6B2     1.704234     6B1     1.704234    14A1     2.074788
       7B1     2.312303     7B2     2.312303    15A1     2.776991
      16A1     3.261759     8B2     3.292676     8B1     3.292676
       9B1     3.386314     9B2     3.386314    17A1     3.445107
       3A2     3.445107    10B1     3.732103    10B2     3.732103
      18A1     3.935024     4A2     3.935025    19A1     4.216886
      11B1     4.431328    11B2     4.431328    12B2     4.707850
      12B1     4.707850    20A1     5.276191     5A2     5.679758
      21A1     5.679761    22A1     5.774052     6A2     5.774053
      13B2     6.127542    13B1     6.127542    23A1     6.387441
      24A1     6.968708    14B1     7.606160    14B2     7.606160
      25A1     8.603492    26A1    20.921779

    Beta Occupied:

       1A1   -19.757669     2A1   -14.908228     3A1    -1.945426
       1B2    -1.098707     1B1    -1.098707     4A1    -1.082595
       5A1    -0.923613

    Beta Virtual:

       2B1    -0.390938     2B2    -0.390938     6A1    -0.061087
       3B2     0.053633     3B1     0.053633     7A1     0.114128
       8A1     0.196712     4B2     0.294837     4B1     0.294837
       9A1     0.505736     1A2     0.505736    10A1     0.634701
      11A1     0.850447     5B1     0.897330     5B2     0.897330
      12A1     1.222959     2A2     1.222959    13A1     1.564116
       6B2     1.704234     6B1     1.704234    14A1     2.074788
       7B1     2.312303     7B2     2.312303    15A1     2.776991
      16A1     3.261759     8B2     3.292676     8B1     3.292676
       9B1     3.386314     9B2     3.386314    17A1     3.445107
       3A2     3.445107    10B1     3.732103    10B2     3.732103
      18A1     3.935024     4A2     3.935025    19A1     4.216886
      11B1     4.431328    11B2     4.431328    12B2     4.707850
      12B1     4.707850    20A1     5.276191     5A2     5.679758
      21A1     5.679761    22A1     5.774052     6A2     5.774053
      13B2     6.127542    13B1     6.127542    23A1     6.387441
      24A1     6.968708    14B1     7.606160    14B2     7.606160
      25A1     8.603492    26A1    20.921779

    Final Occupation by Irrep:
             A1    A2    B1    B2
    DOCC [     5,    0,    1,    1 ]
    SOCC [     0,    0,    0,    0 ]
    NA   [     5,    0,    1,    1 ]
    NB   [     5,    0,    1,    1 ]

  @DF-UKS Final Energy:  -129.44302172095982

   => Energetics <=

    Nuclear Repulsion Energy =             33.4165804553209682
    One-Electron Energy =                -235.2094488150187317
    Two-Electron Energy =                  84.7128078174771844
    DFT Exchange-Correlation Energy =     -12.3629611787392406
    Empirical Dispersion Energy =           0.0000000000000000
    VV10 Nonlocal Energy =                  0.0000000000000000
    Total Energy =                       -129.4430217209598197

  UHF NO Occupations:
  HONO-2 :    4 A1 2.0000000
  HONO-1 :    1 B1 2.0000000
  HONO-0 :    5 A1 2.0000000
  LUNO+0 :    6 A1 0.0000000
  LUNO+1 :    7 A1 0.0000000
  LUNO+2 :    8 A1 0.0000000
  LUNO+3 :    9 A1 0.0000000

Computation Completed

Properties will be evaluated at   0.000000,   0.000000,   0.000000 [a0]

Properties computed using the B3LYP density matrix

 Multipole Moments:

 ------------------------------------------------------------------------------------
     Multipole            Electronic (a.u.)      Nuclear  (a.u.)        Total (a.u.)
 ------------------------------------------------------------------------------------

 L = 1.  Multiply by 2.5417464519 to convert [e a0] to [Debye]
 Dipole X            :          0.0000000            0.0000000            0.0000000
 Dipole Y            :          0.0000000            0.0000000            0.0000000
 Dipole Z            :          0.0098239           -0.0033625            0.0064615
 Magnitude           :                                                    0.0064615

 L = 2.  Multiply by 1.3450342976 to convert [e a0^2] to [Debye ang]
 Quadrupole XX       :         -5.4708355            0.0000000           -5.4708355
 Quadrupole XY       :          0.0000000            0.0000000            0.0000000
 Quadrupole XZ       :          0.0000000            0.0000000            0.0000000
 Quadrupole YY       :         -5.4708355            0.0000000           -5.4708355
 Quadrupole YZ       :          0.0000000            0.0000000            0.0000000
 Quadrupole ZZ       :        -16.1207227           10.4845270           -5.6361957
 Traceless XX        :          3.5499624           -3.4948423            0.0551201
 Traceless YY        :          3.5499624           -3.4948423            0.0551201
 Traceless ZZ        :         -7.0999248            6.9896846           -0.1102402

 ------------------------------------------------------------------------------------
  ==> Computing MBIS Charges <==

  Electron Count from Grid (Expected Number): 14.00000 (14.00000)
  Difference: -0.00000

  MBIS Charges: (a.u.)
   Center  Symbol  Z      Pop.       Charge
      1       O    8    7.559275    0.440725
      2       N    7    6.440724    0.559276

  MBIS Dipoles: [e a0]
   Center  Symbol  Z        X           Y           Z
      1       O    8    0.000000   -0.000000   -0.041968
      2       N    7    0.000000   -0.000000   -0.106542

  MBIS Quadrupoles: [e a0^2]
   Center  Symbol  Z      XX        XY        XZ        YY        YZ        ZZ
      1       O    8   -2.7172    0.0000    0.0000   -2.7172   -0.0000   -3.0006
      2       N    7   -2.7536   -0.0000   -0.0000   -2.7536    0.0000   -3.2271

  MBIS Octupoles: [e a0^3]
   Center  Symbol  Z      XXX       XXY       XXZ       XYY       XYZ       XZZ       YYY       YYZ       YZZ       ZZZ
      1       O    8    0.0000   -0.0000   -0.0023    0.0000   -0.0000   -0.0000   -0.0000   -0.0023    0.0000    0.0024
      2       N    7    0.0000   -0.0000   -0.0853    0.0000   -0.0000    0.0000   -0.0000   -0.0853   -0.0000   -0.2924

  MBIS Radial Moments:
   Center  Symbol  Z      [a0^2]      [a0^3]      [a0^4]
      1       O    8    8.435021   13.879280   27.376653
      2       N    7    8.734343   16.165788   35.755341

  MBIS Valence Widths: [a0]
   Center  Symbol  Z     Width
      1       O    8    0.344916
      2       N    7    0.390336

*** tstop() called on Mac.lan at Sun Aug 10 18:40:41 2025
Module time:
	user time   =       4.13 seconds =       0.07 minutes
	system time =       2.32 seconds =       0.04 minutes
	total time  =          1 seconds =       0.02 minutes
Total time:
	user time   =      15.83 seconds =       0.26 minutes
	system time =       4.34 seconds =       0.07 minutes
	total time  =          2 seconds =       0.03 minutes

    Psi4 stopped on: Sunday, 10 August 2025 06:40PM
    Psi4 wall time for execution: 0:00:01.98

*** Psi4 exiting successfully. Buy a developer a beer!
