                               Psi4 1.9.1 release

  ==> Input File <==

--------------------------------------------------------------------------
molecule {
1 2
N           0.000000           0.000000           0.000000
N           0.000000           0.000000           1.596286
}

set {
basis              cc-pvtz
reference          uks
maxiter            500
DAMPING_PERCENTAGE 1
E_CONVERGENCE      1.0E-8
D_CONVERGENCE      1.0E-8
DIIS_MAX_VECS      400
MBIS_MAXITER       8000
guess              read
}

E, wfn = energy('b3lyp', restart_file='last_wfn', return_wfn=True)
properties('b3lyp','MBIS_CHARGES', wfn=wfn)
wfn.to_file('last_wfn')
--------------------------------------------------------------------------

    Molecular point group: d2h
  Charge       = 1
  Multiplicity = 2
  Basis Set: CC-PVTZ
    Blend: CC-PVTZ
  Basis Set: (CC-PVTZ AUX)
    Blend: CC-PVTZ-JKFIT
  @DF-UKS Final Energy:  -108.77607176011296
    Total Energy =                       -108.7760717601129556
 Dipole X            :          0.0000000            0.0000000            0.0000000
 Dipole Y            :          0.0000000            0.0000000            0.0000000
 Dipole Z            :          0.0000000           -0.0000000           -0.0000000
 Magnitude           :                                                    0.0000000
    Molecular point group: d2h

    Geometry (in Angstrom), charge = 1, multiplicity = 2:

       Center              X                  Y                   Z               Mass
    ------------   -----------------  -----------------  -----------------  -----------------
         N            0.000000000000     0.000000000000    -0.798143000000    14.003074004430
         N            0.000000000000     0.000000000000     0.798143000000    14.003074004430

  Charge       = 1
  Multiplicity = 2
  Basis Set: CC-PVTZ
    Blend: CC-PVTZ
  Basis Set: (CC-PVTZ AUX)
    Blend: CC-PVTZ-JKFIT

    Orbital Energies [Eh]
    ---------------------

    Alpha Occupied:

       1Ag   -14.951821     1B1u  -14.951661     2Ag    -1.308205
       2B1u   -1.088160     3Ag    -0.845379     1B2u   -0.748411
       1B3u   -0.748411

    Alpha Virtual:

       1B3g   -0.567401     1B2g   -0.567401     3B1u   -0.396818
       4B1u    0.089011     2B3u    0.113964     2B2u    0.113964
       4Ag     0.137888     5Ag     0.178212     2B2g    0.207878
       2B3g    0.207878     3B3u    0.509310     3B2u    0.509310
       5B1u    0.535121     6Ag     0.557299     1B1g    0.557299
       1Au     0.777344     6B1u    0.777344     7Ag     0.986462
       3B2g    1.125267     3B3g    1.125267     7B1u    1.311464
       8Ag     2.273387     4B3u    2.281606     4B2u    2.281606
       4B2g    2.450882     4B3g    2.450882     8B1u    2.954592
       5B2u    3.107444     5B3u    3.107444     9Ag     3.151723
      10Ag     3.199005     2B1g    3.199005     6B2u    3.411838
       6B3u    3.411838     5B3g    3.481807     5B2g    3.481807
       9B1u    3.665972     2Au     3.665974    11Ag     3.917387
       3B1g    3.917389     6B3g    3.931130     6B2g    3.931130
       7B2u    4.023560     7B3u    4.023560    10B1u    4.050011
       3Au     4.050011    11B1u    4.082826    12Ag     4.409505
      12B1u    4.547579     7B3g    4.618799     7B2g    4.618799
      13Ag     5.143063    13B1u    6.500153

    Beta Occupied:

       1Ag   -14.940100     1B1u  -14.940017     2Ag    -1.273702
       2B1u   -1.025789     1B2u   -0.736537     1B3u   -0.736537

    Beta Virtual:

       3Ag    -0.669565     1B3g   -0.552217     1B2g   -0.552217
       3B1u   -0.323676     2B3u    0.118155     2B2u    0.118155
       4B1u    0.120855     4Ag     0.166497     5Ag     0.191481
       2B2g    0.211536     2B3g    0.211536     3B3u    0.539581
       3B2u    0.539581     5B1u    0.546112     6Ag     0.559957
       1B1g    0.559957     1Au     0.781217     6B1u    0.781217
       7Ag     1.028908     3B2g    1.153687     3B3g    1.153687
       7B1u    1.355952     4B3u    2.296224     4B2u    2.296224
       8Ag     2.335935     4B2g    2.457990     4B3g    2.457990
       8B1u    3.000069     5B2u    3.143113     5B3u    3.143113
       9Ag     3.192522    10Ag     3.227187     2B1g    3.227187
       6B2u    3.413788     6B3u    3.413788     5B3g    3.483622
       5B2g    3.483622     9B1u    3.679392     2Au     3.679394
      11Ag     3.920849     3B1g    3.920851     6B3g    3.965822
       6B2g    3.965822    10B1u    4.065318     3Au     4.065318
       7B2u    4.073442     7B3u    4.073442    11B1u    4.150083
      12Ag     4.480249    12B1u    4.595357     7B3g    4.671563
       7B2g    4.671563    13Ag     5.169212    13B1u    6.530134

    Final Occupation by Irrep:
             Ag   B1g   B2g   B3g    Au   B1u   B2u   B3u
    DOCC [     2,    0,    0,    0,    0,    2,    1,    1 ]
    SOCC [     1,    0,    0,    0,    0,    0,    0,    0 ]
    NA   [     3,    0,    0,    0,    0,    2,    1,    1 ]
    NB   [     2,    0,    0,    0,    0,    2,    1,    1 ]

  @DF-UKS Final Energy:  -108.77607175965353

   => Energetics <=

    Nuclear Repulsion Energy =             16.2437578997936498
    One-Electron Energy =                -174.1940526194357517
    Two-Electron Energy =                  59.6465532358884261
    DFT Exchange-Correlation Energy =     -10.4723302758998678
    Empirical Dispersion Energy =           0.0000000000000000
    VV10 Nonlocal Energy =                  0.0000000000000000
    Total Energy =                       -108.7760717596535329

  UHF NO Occupations:
  HONO-2 :    2 Ag 1.9997634
  HONO-1 :    2B1u 1.9954693
  HONO-0 :    3 Ag 1.0000000
  LUNO+0 :    3B1u 0.0045307
  LUNO+1 :    4 Ag 0.0002366
  LUNO+2 :    2B3u 0.0000970
  LUNO+3 :    2B2u 0.0000970

Computation Completed

Properties will be evaluated at   0.000000,   0.000000,   0.000000 [a0]

Properties computed using the B3LYP density matrix

 Multipole Moments:

 ------------------------------------------------------------------------------------
     Multipole            Electronic (a.u.)      Nuclear  (a.u.)        Total (a.u.)
 ------------------------------------------------------------------------------------

 L = 1.  Multiply by 2.5417464519 to convert [e a0] to [Debye]
 Dipole X            :          0.0000000            0.0000000            0.0000000
 Dipole Y            :          0.0000000            0.0000000            0.0000000
 Dipole Z            :          0.0000000           -0.0000000           -0.0000000
 Magnitude           :                                                    0.0000000

 L = 2.  Multiply by 1.3450342976 to convert [e a0^2] to [Debye ang]
 Quadrupole XX       :         -6.9290435            0.0000000           -6.9290435
 Quadrupole XY       :          0.0000000            0.0000000            0.0000000
 Quadrupole XZ       :          0.0000000            0.0000000            0.0000000
 Quadrupole YY       :         -6.9290435            0.0000000           -6.9290435
 Quadrupole YZ       :          0.0000000            0.0000000            0.0000000
 Quadrupole ZZ       :        -34.4459716           31.8483684           -2.5976032
 Traceless XX        :          9.1723094          -10.6161228           -1.4438134
 Traceless YY        :          9.1723094          -10.6161228           -1.4438134
 Traceless ZZ        :        -18.3446187           21.2322456            2.8876269

 ------------------------------------------------------------------------------------
  ==> Computing MBIS Charges <==

  Electron Count from Grid (Expected Number): 13.00000 (13.00000)
  Difference: -0.00000

  MBIS Charges: (a.u.)
   Center  Symbol  Z      Pop.       Charge
      1       N    7    6.500000    0.500000
      2       N    7    6.500000    0.500000

  MBIS Dipoles: [e a0]
   Center  Symbol  Z        X           Y           Z
      1       N    7   -0.000000   -0.000000   -0.299650
      2       N    7    0.000000   -0.000000    0.299650

  MBIS Quadrupoles: [e a0^2]
   Center  Symbol  Z      XX        XY        XZ        YY        YZ        ZZ
      1       N    7   -3.4645   -0.0000    0.0000   -3.4645   -0.0000   -3.3402
      2       N    7   -3.4645   -0.0000   -0.0000   -3.4645    0.0000   -3.3402

  MBIS Octupoles: [e a0^3]
   Center  Symbol  Z      XXX       XXY       XXZ       XYY       XYZ       XZZ       YYY       YYZ       YZZ       ZZZ
      1       N    7   -0.0000   -0.0000   -0.4065    0.0000   -0.0000   -0.0000   -0.0000   -0.4065   -0.0000   -1.0722
      2       N    7    0.0000   -0.0000    0.4065    0.0000    0.0000   -0.0000   -0.0000    0.4065   -0.0000    1.0722

  MBIS Radial Moments:
   Center  Symbol  Z      [a0^2]      [a0^3]      [a0^4]
      1       N    7   10.269195   20.628694   49.453646
      2       N    7   10.269195   20.628694   49.453646

  MBIS Valence Widths: [a0]
   Center  Symbol  Z     Width
      1       N    7    0.423475
      2       N    7    0.423475

*** tstop() called on Mac.lan at Sun Aug 10 18:25:58 2025
Module time:
	user time   =       3.52 seconds =       0.06 minutes
	system time =       2.70 seconds =       0.05 minutes
	total time  =          0 seconds =       0.00 minutes
Total time:
	user time   =      23.06 seconds =       0.38 minutes
	system time =       5.62 seconds =       0.09 minutes
	total time  =          2 seconds =       0.03 minutes

    Psi4 stopped on: Sunday, 10 August 2025 06:25PM
    Psi4 wall time for execution: 0:00:02.87

*** Psi4 exiting successfully. Buy a developer a beer!
