                               Psi4 1.9.1 release

  ==> Input File <==

--------------------------------------------------------------------------
molecule {
1 1
O           0.000000           0.000000           0.000000
N           0.000000           0.000000           0.634356
}

set {
basis              cc-pvtz
reference          uks
maxiter            500
DAMPING_PERCENTAGE 1
E_CONVERGENCE      1.0E-8
D_CONVERGENCE      1.0E-8
DIIS_MAX_VECS      400
MBIS_MAXITER       8000
guess              read
}

E, wfn = energy('b3lyp', restart_file='last_wfn', return_wfn=True)
properties('b3lyp','MBIS_CHARGES', wfn=wfn)
wfn.to_file('last_wfn')
--------------------------------------------------------------------------

    Molecular point group: c2v
  Charge       = 1
  Multiplicity = 1
  Basis Set: CC-PVTZ
    Blend: CC-PVTZ
  Basis Set: (CC-PVTZ AUX)
    Blend: CC-PVTZ-JKFIT
  @DF-UKS Final Energy:  -127.63230636256338
    Total Energy =                       -127.6323063625633836
 Dipole X            :          0.0000000            0.0000000            0.0000000
 Dipole Y            :          0.0000000            0.0000000            0.0000000
 Dipole Z            :         -0.1559558           -0.0024053           -0.1583611
 Magnitude           :                                                    0.1583611
    Molecular point group: c2v

    Geometry (in Angstrom), charge = 1, multiplicity = 1:

       Center              X                  Y                   Z               Mass
    ------------   -----------------  -----------------  -----------------  -----------------
         O            0.000000000000     0.000000000000    -0.296117653903    15.994914619570
         N            0.000000000000     0.000000000000     0.338238346097    14.003074004430

  Charge       = 1
  Multiplicity = 1
  Basis Set: CC-PVTZ
    Blend: CC-PVTZ
  Basis Set: (CC-PVTZ AUX)
    Blend: CC-PVTZ-JKFIT

    Orbital Energies [Eh]
    ---------------------

    Alpha Occupied:

       1A1   -19.786756     2A1   -14.917967     3A1    -2.036134
       1B2    -1.352861     1B1    -1.352861     4A1    -1.085250
       5A1    -0.898785

    Alpha Virtual:

       2B2    -0.177379     2B1    -0.177379     6A1    -0.069264
       3B1     0.000917     3B2     0.000917     7A1     0.085703
       8A1     0.218956     4B2     0.364193     4B1     0.364193
       1A2     0.489754     9A1     0.489754    10A1     0.881089
       5B2     1.074092     5B1     1.074092    11A1     1.105922
      12A1     1.328829     2A2     1.328829     6B2     1.584586
       6B1     1.584586    13A1     1.607489     7B2     2.252685
       7B1     2.252685    14A1     2.794151    15A1     3.095040
       8B1     3.239566     8B2     3.239566     3A2     3.557756
      16A1     3.557757     9B2     3.688540     9B1     3.688540
      17A1     3.730291     4A2     3.932186    18A1     3.932186
      10B2     4.035605    10B1     4.035605    19A1     4.416778
      11B2     4.946073    11B1     4.946073    12B2     4.963838
      12B1     4.963838    20A1     5.564880     5A2     5.564880
      21A1     5.926806    13B2     6.621856    13B1     6.621856
      22A1     6.974167     6A2     6.974167    23A1     7.041852
      14B2     8.719982    14B1     8.719982    24A1     9.182124
      25A1    10.142909    26A1    27.753129

    Beta Occupied:

       1A1   -19.786756     2A1   -14.917967     3A1    -2.036134
       1B2    -1.352861     1B1    -1.352861     4A1    -1.085250
       5A1    -0.898785

    Beta Virtual:

       2B2    -0.177379     2B1    -0.177379     6A1    -0.069264
       3B1     0.000917     3B2     0.000917     7A1     0.085703
       8A1     0.218956     4B2     0.364193     4B1     0.364193
       1A2     0.489754     9A1     0.489754    10A1     0.881089
       5B2     1.074092     5B1     1.074092    11A1     1.105922
      12A1     1.328829     2A2     1.328829     6B2     1.584586
       6B1     1.584586    13A1     1.607489     7B2     2.252685
       7B1     2.252685    14A1     2.794151    15A1     3.095040
       8B1     3.239566     8B2     3.239566     3A2     3.557756
      16A1     3.557757     9B2     3.688540     9B1     3.688540
      17A1     3.730291     4A2     3.932186    18A1     3.932186
      10B2     4.035605    10B1     4.035605    19A1     4.416778
      11B2     4.946073    11B1     4.946073    12B2     4.963838
      12B1     4.963838    20A1     5.564880     5A2     5.564880
      21A1     5.926806    13B2     6.621856    13B1     6.621856
      22A1     6.974167     6A2     6.974167    23A1     7.041852
      14B2     8.719982    14B1     8.719982    24A1     9.182124
      25A1    10.142909    26A1    27.753129

    Final Occupation by Irrep:
             A1    A2    B1    B2
    DOCC [     5,    0,    1,    1 ]
    SOCC [     0,    0,    0,    0 ]
    NA   [     5,    0,    1,    1 ]
    NB   [     5,    0,    1,    1 ]

  @DF-UKS Final Energy:  -127.63230636288239

   => Energetics <=

    Nuclear Repulsion Energy =             46.7149736071228077
    One-Electron Energy =                -256.5356672713567718
    Two-Electron Energy =                  95.1591267031877095
    DFT Exchange-Correlation Energy =     -12.9707394018361235
    Empirical Dispersion Energy =           0.0000000000000000
    VV10 Nonlocal Energy =                  0.0000000000000000
    Total Energy =                       -127.6323063628823888

  UHF NO Occupations:
  HONO-2 :    1 B1 2.0000000
  HONO-1 :    4 A1 2.0000000
  HONO-0 :    5 A1 2.0000000
  LUNO+0 :    6 A1 0.0000000
  LUNO+1 :    7 A1 0.0000000
  LUNO+2 :    8 A1 0.0000000
  LUNO+3 :    9 A1 0.0000000

Computation Completed

Properties will be evaluated at   0.000000,   0.000000,   0.000000 [a0]

Properties computed using the B3LYP density matrix

 Multipole Moments:

 ------------------------------------------------------------------------------------
     Multipole            Electronic (a.u.)      Nuclear  (a.u.)        Total (a.u.)
 ------------------------------------------------------------------------------------

 L = 1.  Multiply by 2.5417464519 to convert [e a0] to [Debye]
 Dipole X            :          0.0000000            0.0000000            0.0000000
 Dipole Y            :          0.0000000            0.0000000            0.0000000
 Dipole Z            :         -0.1559558           -0.0024053           -0.1583611
 Magnitude           :                                                    0.1583611

 L = 2.  Multiply by 1.3450342976 to convert [e a0^2] to [Debye ang]
 Quadrupole XX       :         -4.8097285            0.0000000           -4.8097285
 Quadrupole XY       :          0.0000000            0.0000000            0.0000000
 Quadrupole XZ       :          0.0000000            0.0000000            0.0000000
 Quadrupole YY       :         -4.8097285            0.0000000           -4.8097285
 Quadrupole YZ       :          0.0000000            0.0000000            0.0000000
 Quadrupole ZZ       :        -11.0336641            5.3648877           -5.6687764
 Traceless XX        :          2.0746452           -1.7882959            0.2863493
 Traceless YY        :          2.0746452           -1.7882959            0.2863493
 Traceless ZZ        :         -4.1492904            3.5765918           -0.5726986

 ------------------------------------------------------------------------------------
  ==> Computing MBIS Charges <==

  Electron Count from Grid (Expected Number): 14.00000 (14.00000)
  Difference: -0.00000

  MBIS Charges: (a.u.)
   Center  Symbol  Z      Pop.       Charge
      1       O    8    7.437214    0.562786
      2       N    7    6.562784    0.437216

  MBIS Dipoles: [e a0]
   Center  Symbol  Z        X           Y           Z
      1       O    8    0.000000   -0.000000    0.031085
      2       N    7    0.000000   -0.000000   -0.153981

  MBIS Quadrupoles: [e a0^2]
   Center  Symbol  Z      XX        XY        XZ        YY        YZ        ZZ
      1       O    8   -2.2863    0.0000   -0.0000   -2.2863   -0.0000   -2.6914
      2       N    7   -2.5235    0.0000   -0.0000   -2.5235    0.0000   -3.1006

  MBIS Octupoles: [e a0^3]
   Center  Symbol  Z      XXX       XXY       XXZ       XYY       XYZ       XZZ       YYY       YYZ       YZZ       ZZZ
      1       O    8    0.0000   -0.0000    0.0609    0.0000    0.0000   -0.0000   -0.0000    0.0609    0.0000    0.2746
      2       N    7    0.0000   -0.0000   -0.2082    0.0000   -0.0000    0.0000   -0.0000   -0.2082    0.0000   -0.5842

  MBIS Radial Moments:
   Center  Symbol  Z      [a0^2]      [a0^3]      [a0^4]
      1       O    8    7.263963   11.277503   21.087447
      2       N    7    8.147488   14.616247   31.577947

  MBIS Valence Widths: [a0]
   Center  Symbol  Z     Width
      1       O    8    0.320790
      2       N    7    0.368938

*** tstop() called on Mac.lan at Sun Aug 10 18:41:52 2025
Module time:
	user time   =       3.93 seconds =       0.07 minutes
	system time =       2.11 seconds =       0.04 minutes
	total time  =          1 seconds =       0.02 minutes
Total time:
	user time   =      15.92 seconds =       0.27 minutes
	system time =       4.40 seconds =       0.07 minutes
	total time  =          2 seconds =       0.03 minutes

    Psi4 stopped on: Sunday, 10 August 2025 06:41PM
    Psi4 wall time for execution: 0:00:01.98

*** Psi4 exiting successfully. Buy a developer a beer!
