                               Psi4 1.9.1 release

  ==> Input File <==

--------------------------------------------------------------------------
molecule {
1 1
C           0.000000           0.000000           0.000000
H           0.000000           0.000000           1.266625
}

set {
basis              cc-pvtz
reference          uks
maxiter            500
DAMPING_PERCENTAGE 1
E_CONVERGENCE      1.0E-8
D_CONVERGENCE      1.0E-8
DIIS_MAX_VECS      400
MBIS_MAXITER       8000
guess              read
}

E, wfn = energy('b3lyp', restart_file='last_wfn', return_wfn=True)
properties('b3lyp','MBIS_CHARGES', wfn=wfn)
wfn.to_file('last_wfn')
--------------------------------------------------------------------------

    Molecular point group: c2v
  Charge       = 1
  Multiplicity = 1
  Basis Set: CC-PVTZ
    Blend: CC-PVTZ
  Basis Set: (CC-PVTZ AUX)
    Blend: CC-PVTZ-JKFIT
  @DF-UKS Final Energy:   -38.08570109353279
    Total Energy =                        -38.0857010935327907
 Dipole X            :          0.0000000            0.0000000            0.0000000
 Dipole Y            :          0.0000000            0.0000000            0.0000000
 Dipole Z            :         -0.3685316            1.0954227            0.7268911
 Magnitude           :                                                    0.7268911
    Molecular point group: c2v

    Geometry (in Angstrom), charge = 1, multiplicity = 1:

       Center              X                  Y                   Z               Mass
    ------------   -----------------  -----------------  -----------------  -----------------
         C            0.000000000000     0.000000000000    -0.098136035677    12.000000000000
         H            0.000000000000     0.000000000000     1.168488964323     1.007825032230

  Charge       = 1
  Multiplicity = 1
  Basis Set: CC-PVTZ
    Blend: CC-PVTZ
  Basis Set: (CC-PVTZ AUX)
    Blend: CC-PVTZ-JKFIT

    Orbital Energies [Eh]
    ---------------------

    Alpha Occupied:

       1A1   -10.804923     2A1    -1.018323     3A1    -0.711190

    Alpha Virtual:

       1B1    -0.540599     1B2    -0.540599     4A1    -0.263320
       5A1    -0.014451     2B1     0.008840     2B2     0.008840
       6A1     0.032304     7A1     0.162141     3B1     0.219692
       3B2     0.219692     8A1     0.322469     1A2     0.322469
       9A1     0.599136     4B1     0.673294     4B2     0.673294
      10A1     0.930917     5B2     1.528459     5B1     1.528459
      11A1     1.728429    12A1     1.944159     2A2     2.151166
      13A1     2.151167     6B1     2.181809     6B2     2.181809
       7B1     2.252947     7B2     2.252947    14A1     2.391886
      15A1     2.493440     3A2     2.493440     8B1     2.631868
       8B2     2.631868    16A1     2.717134     4A2     3.069657
      17A1     3.069660     9B1     3.376793     9B2     3.376793
      18A1     3.602098    10B1     3.983173    10B2     3.983173
      19A1     4.094702    20A1     6.443032

    Beta Occupied:

       1A1   -10.804923     2A1    -1.018323     3A1    -0.711190

    Beta Virtual:

       1B1    -0.540599     1B2    -0.540599     4A1    -0.263320
       5A1    -0.014451     2B1     0.008840     2B2     0.008840
       6A1     0.032304     7A1     0.162141     3B1     0.219692
       3B2     0.219692     8A1     0.322469     1A2     0.322469
       9A1     0.599136     4B1     0.673294     4B2     0.673294
      10A1     0.930917     5B2     1.528459     5B1     1.528459
      11A1     1.728429    12A1     1.944159     2A2     2.151166
      13A1     2.151167     6B1     2.181809     6B2     2.181809
       7B1     2.252947     7B2     2.252947    14A1     2.391886
      15A1     2.493440     3A2     2.493440     8B1     2.631868
       8B2     2.631868    16A1     2.717134     4A2     3.069657
      17A1     3.069660     9B1     3.376793     9B2     3.376793
      18A1     3.602098    10B1     3.983173    10B2     3.983173
      19A1     4.094702    20A1     6.443032

    Final Occupation by Irrep:
             A1    A2    B1    B2
    DOCC [     3,    0,    0,    0 ]
    SOCC [     0,    0,    0,    0 ]
    NA   [     3,    0,    0,    0 ]
    NB   [     3,    0,    0,    0 ]

  @DF-UKS Final Energy:   -38.08570109354642

   => Energetics <=

    Nuclear Repulsion Energy =              2.5067113502575746
    One-Electron Energy =                 -53.0539631031427916
    Two-Electron Energy =                  16.6963709345046780
    DFT Exchange-Correlation Energy =      -4.2348202751658830
    Empirical Dispersion Energy =           0.0000000000000000
    VV10 Nonlocal Energy =                  0.0000000000000000
    Total Energy =                        -38.0857010935464189

  UHF NO Occupations:
  HONO-2 :    1 A1 2.0000000
  HONO-1 :    2 A1 2.0000000
  HONO-0 :    3 A1 2.0000000
  LUNO+0 :    4 A1 0.0000000
  LUNO+1 :    5 A1 0.0000000
  LUNO+2 :    6 A1 0.0000000
  LUNO+3 :    7 A1 0.0000000

Computation Completed

Properties will be evaluated at   0.000000,   0.000000,   0.000000 [a0]

Properties computed using the B3LYP density matrix

 Multipole Moments:

 ------------------------------------------------------------------------------------
     Multipole            Electronic (a.u.)      Nuclear  (a.u.)        Total (a.u.)
 ------------------------------------------------------------------------------------

 L = 1.  Multiply by 2.5417464519 to convert [e a0] to [Debye]
 Dipole X            :          0.0000000            0.0000000            0.0000000
 Dipole Y            :          0.0000000            0.0000000            0.0000000
 Dipole Z            :         -0.3685316            1.0954227            0.7268911
 Magnitude           :                                                    0.7268911

 L = 2.  Multiply by 1.3450342976 to convert [e a0^2] to [Debye ang]
 Quadrupole XX       :         -2.9938736            0.0000000           -2.9938736
 Quadrupole XY       :          0.0000000            0.0000000            0.0000000
 Quadrupole XZ       :          0.0000000            0.0000000            0.0000000
 Quadrupole YY       :         -2.9938736            0.0000000           -2.9938736
 Quadrupole YZ       :          0.0000000            0.0000000            0.0000000
 Quadrupole ZZ       :         -7.9095600            5.0821629           -2.8273971
 Traceless XX        :          1.6385621           -1.6940543           -0.0554922
 Traceless YY        :          1.6385621           -1.6940543           -0.0554922
 Traceless ZZ        :         -3.2771242            3.3881086            0.1109843

 ------------------------------------------------------------------------------------
  ==> Computing MBIS Charges <==

  Electron Count from Grid (Expected Number):  6.00000 ( 6.00000)
  Difference:  0.00000

  MBIS Charges: (a.u.)
   Center  Symbol  Z      Pop.       Charge
      1       C    6    5.211824    0.788176
      2       H    1    0.788176    0.211824

  MBIS Dipoles: [e a0]
   Center  Symbol  Z        X           Y           Z
      1       C    6    0.000000    0.000000    0.282464
      2       H    1   -0.000000   -0.000000    0.122859

  MBIS Quadrupoles: [e a0^2]
   Center  Symbol  Z      XX        XY        XZ        YY        YZ        ZZ
      1       C    6   -2.5606    0.0000   -0.0000   -2.5606   -0.0000   -3.8810
      2       H    1   -0.4332    0.0000   -0.0000   -0.4332   -0.0000   -0.4441

  MBIS Octupoles: [e a0^3]
   Center  Symbol  Z      XXX       XXY       XXZ       XYY       XYZ       XZZ       YYY       YYZ       YZZ       ZZZ
      1       C    6    0.0000   -0.0000    0.3221   -0.0000   -0.0000    0.0000    0.0000    0.3221   -0.0000    0.8514
      2       H    1   -0.0000   -0.0000    0.0247   -0.0000    0.0000   -0.0000   -0.0000    0.0247   -0.0000    0.1082

  MBIS Radial Moments:
   Center  Symbol  Z      [a0^2]      [a0^3]      [a0^4]
      1       C    6    9.002253   19.270084   49.163935
      2       H    1    1.310626    2.338239    4.988938

  MBIS Valence Widths: [a0]
   Center  Symbol  Z     Width
      1       C    6    0.464823
      2       H    1    0.380395

*** tstop() called on Mac.lan at Sun Aug 10 18:27:18 2025
Module time:
	user time   =       2.49 seconds =       0.04 minutes
	system time =       2.03 seconds =       0.03 minutes
	total time  =          0 seconds =       0.00 minutes
Total time:
	user time   =      10.71 seconds =       0.18 minutes
	system time =       4.38 seconds =       0.07 minutes
	total time  =          1 seconds =       0.02 minutes

    Psi4 stopped on: Sunday, 10 August 2025 06:27PM
    Psi4 wall time for execution: 0:00:01.48

*** Psi4 exiting successfully. Buy a developer a beer!
