                               Psi4 1.9.1 release

  ==> Input File <==

--------------------------------------------------------------------------
molecule {
1 1
C           0.000000           0.000000           0.000000
H           0.000000           0.000000           1.621559
}

set {
basis              cc-pvtz
reference          uks
maxiter            500
DAMPING_PERCENTAGE 1
E_CONVERGENCE      1.0E-8
D_CONVERGENCE      1.0E-8
DIIS_MAX_VECS      400
MBIS_MAXITER       8000
guess              read
}

E, wfn = energy('b3lyp', restart_file='last_wfn', return_wfn=True)
properties('b3lyp','MBIS_CHARGES', wfn=wfn)
wfn.to_file('last_wfn')
--------------------------------------------------------------------------

    Molecular point group: c2v
  Charge       = 1
  Multiplicity = 1
  Basis Set: CC-PVTZ
    Blend: CC-PVTZ
  Basis Set: (CC-PVTZ AUX)
    Blend: CC-PVTZ-JKFIT
  @DF-UKS Final Energy:   -38.03971229596264
    Total Energy =                        -38.0397122959626373
 Dipole X            :          0.0000000            0.0000000            0.0000000
 Dipole Y            :          0.0000000            0.0000000            0.0000000
 Dipole Z            :         -0.5885584            1.4023824            0.8138240
 Magnitude           :                                                    0.8138240
    Molecular point group: c2v

    Geometry (in Angstrom), charge = 1, multiplicity = 1:

       Center              X                  Y                   Z               Mass
    ------------   -----------------  -----------------  -----------------  -----------------
         C            0.000000000000     0.000000000000    -0.125635742131    12.000000000000
         H            0.000000000000     0.000000000000     1.495923257869     1.007825032230

  Charge       = 1
  Multiplicity = 1
  Basis Set: CC-PVTZ
    Blend: CC-PVTZ
  Basis Set: (CC-PVTZ AUX)
    Blend: CC-PVTZ-JKFIT

    Orbital Energies [Eh]
    ---------------------

    Alpha Occupied:

       1A1   -10.802848     2A1    -0.962364     3A1    -0.672085

    Alpha Virtual:

       1B2    -0.527131     1B1    -0.527131     4A1    -0.362300
       5A1    -0.007444     2B1     0.012324     2B2     0.012324
       6A1     0.040707     7A1     0.152111     3B1     0.220792
       3B2     0.220792     8A1     0.335026     1A2     0.335026
       9A1     0.479228     4B2     0.584026     4B1     0.584026
      10A1     0.884581     5B1     1.525793     5B2     1.525793
      11A1     1.666545    12A1     2.072399     6B1     2.180953
       6B2     2.180953    13A1     2.212319    14A1     2.243805
       2A2     2.243805     7B2     2.265169     7B1     2.265169
       3A2     2.496905    15A1     2.496905     8B1     2.554933
       8B2     2.554933    16A1     2.820848    17A1     2.912650
       4A2     2.912660     9B2     3.211851     9B1     3.211851
      18A1     3.229264    10B2     3.497616    10B1     3.497616
      19A1     3.674900    20A1     4.690664

    Beta Occupied:

       1A1   -10.802848     2A1    -0.962364     3A1    -0.672085

    Beta Virtual:

       1B1    -0.527131     1B2    -0.527131     4A1    -0.362300
       5A1    -0.007444     2B1     0.012324     2B2     0.012324
       6A1     0.040707     7A1     0.152111     3B1     0.220792
       3B2     0.220792     8A1     0.335026     1A2     0.335026
       9A1     0.479228     4B2     0.584026     4B1     0.584026
      10A1     0.884581     5B1     1.525793     5B2     1.525793
      11A1     1.666545    12A1     2.072399     6B1     2.180953
       6B2     2.180953    13A1     2.212319    14A1     2.243805
       2A2     2.243805     7B1     2.265169     7B2     2.265169
       3A2     2.496905    15A1     2.496905     8B1     2.554933
       8B2     2.554933    16A1     2.820848    17A1     2.912650
       4A2     2.912660     9B2     3.211851     9B1     3.211851
      18A1     3.229264    10B2     3.497616    10B1     3.497616
      19A1     3.674900    20A1     4.690664

    Final Occupation by Irrep:
             A1    A2    B1    B2
    DOCC [     3,    0,    0,    0 ]
    SOCC [     0,    0,    0,    0 ]
    NA   [     3,    0,    0,    0 ]
    NB   [     3,    0,    0,    0 ]

  @DF-UKS Final Energy:   -38.03971229598928

   => Energetics <=

    Nuclear Repulsion Energy =              1.9580312921207308
    One-Electron Energy =                 -52.0995381068823633
    Two-Electron Energy =                  16.2785569712064522
    DFT Exchange-Correlation Energy =      -4.1767624524340903
    Empirical Dispersion Energy =           0.0000000000000000
    VV10 Nonlocal Energy =                  0.0000000000000000
    Total Energy =                        -38.0397122959892755

  UHF NO Occupations:
  HONO-2 :    1 A1 2.0000000
  HONO-1 :    2 A1 2.0000000
  HONO-0 :    3 A1 2.0000000
  LUNO+0 :    4 A1 0.0000000
  LUNO+1 :    5 A1 0.0000000
  LUNO+2 :    6 A1 0.0000000
  LUNO+3 :    7 A1 0.0000000

Computation Completed

Properties will be evaluated at   0.000000,   0.000000,   0.000000 [a0]

Properties computed using the B3LYP density matrix

 Multipole Moments:

 ------------------------------------------------------------------------------------
     Multipole            Electronic (a.u.)      Nuclear  (a.u.)        Total (a.u.)
 ------------------------------------------------------------------------------------

 L = 1.  Multiply by 2.5417464519 to convert [e a0] to [Debye]
 Dipole X            :          0.0000000            0.0000000            0.0000000
 Dipole Y            :          0.0000000            0.0000000            0.0000000
 Dipole Z            :         -0.5885584            1.4023824            0.8138240
 Magnitude           :                                                    0.8138240

 L = 2.  Multiply by 1.3450342976 to convert [e a0^2] to [Debye ang]
 Quadrupole XX       :         -3.1945611            0.0000000           -3.1945611
 Quadrupole XY       :          0.0000000            0.0000000            0.0000000
 Quadrupole XZ       :          0.0000000            0.0000000            0.0000000
 Quadrupole YY       :         -3.1945611            0.0000000           -3.1945611
 Quadrupole YZ       :          0.0000000            0.0000000            0.0000000
 Quadrupole ZZ       :        -10.0267502            8.3294817           -1.6972685
 Traceless XX        :          2.2773963           -2.7764939           -0.4990975
 Traceless YY        :          2.2773963           -2.7764939           -0.4990975
 Traceless ZZ        :         -4.5547927            5.5529878            0.9981951

 ------------------------------------------------------------------------------------
  ==> Computing MBIS Charges <==

  Electron Count from Grid (Expected Number):  6.00000 ( 6.00000)
  Difference: -0.00000

  MBIS Charges: (a.u.)
   Center  Symbol  Z      Pop.       Charge
      1       C    6    5.257643    0.742357
      2       H    1    0.742357    0.257643

  MBIS Dipoles: [e a0]
   Center  Symbol  Z        X           Y           Z
      1       C    6   -0.000000    0.000000    0.092382
      2       H    1    0.000000   -0.000000    0.169364

  MBIS Quadrupoles: [e a0^2]
   Center  Symbol  Z      XX        XY        XZ        YY        YZ        ZZ
      1       C    6   -2.6538   -0.0000    0.0000   -2.6538   -0.0000   -4.1534
      2       H    1   -0.5407   -0.0000    0.0000   -0.5407   -0.0000   -0.5583

  MBIS Octupoles: [e a0^3]
   Center  Symbol  Z      XXX       XXY       XXZ       XYY       XYZ       XZZ       YYY       YYZ       YZZ       ZZZ
      1       C    6   -0.0000    0.0000    0.0847   -0.0000    0.0000    0.0000   -0.0000    0.0847   -0.0000    0.1634
      2       H    1    0.0000   -0.0000    0.0781    0.0000   -0.0000    0.0000   -0.0000    0.0781   -0.0000    0.2731

  MBIS Radial Moments:
   Center  Symbol  Z      [a0^2]      [a0^3]      [a0^4]
      1       C    6    9.461009   20.633443   53.489313
      2       H    1    1.639802    3.351783    8.121784

  MBIS Valence Widths: [a0]
   Center  Symbol  Z     Width
      1       C    6    0.474457
      2       H    1    0.438348

*** tstop() called on Mac.lan at Sun Aug 10 18:27:52 2025
Module time:
	user time   =       3.47 seconds =       0.06 minutes
	system time =       1.47 seconds =       0.02 minutes
	total time  =          1 seconds =       0.02 minutes
Total time:
	user time   =      12.65 seconds =       0.21 minutes
	system time =       3.18 seconds =       0.05 minutes
	total time  =          2 seconds =       0.03 minutes

    Psi4 stopped on: Sunday, 10 August 2025 06:27PM
    Psi4 wall time for execution: 0:00:01.55

*** Psi4 exiting successfully. Buy a developer a beer!
