                               Psi4 1.9.1 release

  ==> Input File <==

--------------------------------------------------------------------------
molecule {
1 2
N           0.000000           0.000000           0.000000
N           0.000000           0.000000           1.494827
}

set {
basis              cc-pvtz
reference          uks
maxiter            500
DAMPING_PERCENTAGE 1
E_CONVERGENCE      1.0E-8
D_CONVERGENCE      1.0E-8
DIIS_MAX_VECS      400
MBIS_MAXITER       8000
guess              read
}

E, wfn = energy('b3lyp', restart_file='last_wfn', return_wfn=True)
properties('b3lyp','MBIS_CHARGES', wfn=wfn)
wfn.to_file('last_wfn')
--------------------------------------------------------------------------

    Molecular point group: d2h
  Charge       = 1
  Multiplicity = 2
  Basis Set: CC-PVTZ
    Blend: CC-PVTZ
  Basis Set: (CC-PVTZ AUX)
    Blend: CC-PVTZ-JKFIT
  @DF-UKS Final Energy:  -108.82519308394842
    Total Energy =                       -108.8251930839484203
 Dipole X            :          0.0000000            0.0000000            0.0000000
 Dipole Y            :          0.0000000            0.0000000            0.0000000
 Dipole Z            :          0.0000000            0.0000000            0.0000000
 Magnitude           :                                                    0.0000000
    Molecular point group: d2h

    Geometry (in Angstrom), charge = 1, multiplicity = 2:

       Center              X                  Y                   Z               Mass
    ------------   -----------------  -----------------  -----------------  -----------------
         N            0.000000000000     0.000000000000    -0.747413500000    14.003074004430
         N            0.000000000000     0.000000000000     0.747413500000    14.003074004430

  Charge       = 1
  Multiplicity = 2
  Basis Set: CC-PVTZ
    Blend: CC-PVTZ
  Basis Set: (CC-PVTZ AUX)
    Blend: CC-PVTZ-JKFIT

    Orbital Energies [Eh]
    ---------------------

    Alpha Occupied:

       1Ag   -14.952915     1B1u  -14.952702     2Ag    -1.348573
       2B1u   -1.077441     3Ag    -0.860971     1B3u   -0.769159
       1B2u   -0.769159

    Alpha Virtual:

       1B2g   -0.554689     1B3g   -0.554689     3B1u   -0.328731
       4B1u    0.085828     2B2u    0.111392     2B3u    0.111392
       4Ag     0.132223     5Ag     0.164820     2B3g    0.207929
       2B2g    0.207929     3B3u    0.528689     3B2u    0.528689
       6Ag     0.537006     1B1g    0.537006     5B1u    0.547433
       1Au     0.796034     6B1u    0.796034     7Ag     1.085225
       3B2g    1.173103     3B3g    1.173103     7B1u    1.278586
       4B3u    2.276785     4B2u    2.276785     8Ag     2.325757
       4B3g    2.469279     4B2g    2.469279     8B1u    3.074703
       5B2u    3.091401     5B3u    3.091401     9Ag     3.132606
       2B1g    3.132607    10Ag     3.146339     6B3u    3.384875
       6B2u    3.384875     5B2g    3.498099     5B3g    3.498099
       9B1u    3.757337     2Au     3.757339    11Ag     3.914220
       3B1g    3.914232     6B2g    4.031438     6B3g    4.031438
      10B1u    4.073779     3Au     4.073790     7B3u    4.084919
       7B2u    4.084919    11B1u    4.102521    12B1u    4.361999
      12Ag     4.538118     7B2g    4.775924     7B3g    4.775924
      13Ag     5.171036    13B1u    7.324745

    Beta Occupied:

       1Ag   -14.940878     1B1u  -14.940760     2Ag    -1.315513
       2B1u   -1.008460     1B3u   -0.757230     1B2u   -0.757230

    Beta Virtual:

       3Ag    -0.682324     1B2g   -0.538294     1B3g   -0.538294
       3B1u   -0.264213     2B2u    0.115357     2B3u    0.115357
       4B1u    0.119828     4Ag     0.162116     5Ag     0.177315
       2B3g    0.211833     2B2g    0.211833     6Ag     0.539684
       1B1g    0.539684     5B1u    0.558158     3B3u    0.559195
       3B2u    0.559195     1Au     0.800796     6B1u    0.800796
       7Ag     1.126119     3B2g    1.201969     3B3g    1.201969
       7B1u    1.322394     4B3u    2.291492     4B2u    2.291492
       8Ag     2.385749     4B3g    2.476420     4B2g    2.476420
       8B1u    3.119549     5B2u    3.124139     5B3u    3.124139
       9Ag     3.160621     2B1g    3.160622    10Ag     3.190216
       6B3u    3.387427     6B2u    3.387427     5B2g    3.500519
       5B3g    3.500519     9B1u    3.766427     2Au     3.766430
      11Ag     3.918777     3B1g    3.918789     6B2g    4.071188
       6B3g    4.071188    10B1u    4.094356     3Au     4.094366
       7B3u    4.137628     7B2u    4.137628    11B1u    4.170121
      12B1u    4.412485    12Ag     4.600066     7B2g    4.825259
       7B3g    4.825259    13Ag     5.205480    13B1u    7.352143

    Final Occupation by Irrep:
             Ag   B1g   B2g   B3g    Au   B1u   B2u   B3u
    DOCC [     2,    0,    0,    0,    0,    2,    1,    1 ]
    SOCC [     1,    0,    0,    0,    0,    0,    0,    0 ]
    NA   [     3,    0,    0,    0,    0,    2,    1,    1 ]
    NB   [     2,    0,    0,    0,    0,    2,    1,    1 ]

  @DF-UKS Final Energy:  -108.82519308405173

   => Energetics <=

    Nuclear Repulsion Energy =             17.3462770760964418
    One-Electron Energy =                -176.3225550805495345
    Two-Electron Energy =                  60.6520109197363766
    DFT Exchange-Correlation Energy =     -10.5009259993350170
    Empirical Dispersion Energy =           0.0000000000000000
    VV10 Nonlocal Energy =                  0.0000000000000000
    Total Energy =                       -108.8251930840517332

  UHF NO Occupations:
  HONO-2 :    2 Ag 1.9997908
  HONO-1 :    2B1u 1.9957750
  HONO-0 :    3 Ag 1.0000000
  LUNO+0 :    3B1u 0.0042250
  LUNO+1 :    4 Ag 0.0002092
  LUNO+2 :    2B2u 0.0001036
  LUNO+3 :    2B3u 0.0001036

Computation Completed

Properties will be evaluated at   0.000000,   0.000000,   0.000000 [a0]

Properties computed using the B3LYP density matrix

 Multipole Moments:

 ------------------------------------------------------------------------------------
     Multipole            Electronic (a.u.)      Nuclear  (a.u.)        Total (a.u.)
 ------------------------------------------------------------------------------------

 L = 1.  Multiply by 2.5417464519 to convert [e a0] to [Debye]
 Dipole X            :          0.0000000            0.0000000            0.0000000
 Dipole Y            :          0.0000000            0.0000000            0.0000000
 Dipole Z            :          0.0000000            0.0000000            0.0000000
 Magnitude           :                                                    0.0000000

 L = 2.  Multiply by 1.3450342976 to convert [e a0^2] to [Debye ang]
 Quadrupole XX       :         -6.8219119            0.0000000           -6.8219119
 Quadrupole XY       :          0.0000000            0.0000000            0.0000000
 Quadrupole XZ       :          0.0000000            0.0000000            0.0000000
 Quadrupole YY       :         -6.8219119            0.0000000           -6.8219119
 Quadrupole YZ       :          0.0000000            0.0000000            0.0000000
 Quadrupole ZZ       :        -30.9283527           27.9285023           -2.9998505
 Traceless XX        :          8.0354803           -9.3095008           -1.2740205
 Traceless YY        :          8.0354803           -9.3095008           -1.2740205
 Traceless ZZ        :        -16.0709605           18.6190015            2.5480410

 ------------------------------------------------------------------------------------
  ==> Computing MBIS Charges <==

  Electron Count from Grid (Expected Number): 13.00000 (13.00000)
  Difference: -0.00000

  MBIS Charges: (a.u.)
   Center  Symbol  Z      Pop.       Charge
      1       N    7    6.500000    0.500000
      2       N    7    6.500000    0.500000

  MBIS Dipoles: [e a0]
   Center  Symbol  Z        X           Y           Z
      1       N    7   -0.000000    0.000000   -0.295250
      2       N    7    0.000000   -0.000000    0.295250

  MBIS Quadrupoles: [e a0^2]
   Center  Symbol  Z      XX        XY        XZ        YY        YZ        ZZ
      1       N    7   -3.4110   -0.0000    0.0000   -3.4110   -0.0000   -3.3314
      2       N    7   -3.4110   -0.0000    0.0000   -3.4110    0.0000   -3.3314

  MBIS Octupoles: [e a0^3]
   Center  Symbol  Z      XXX       XXY       XXZ       XYY       XYZ       XZZ       YYY       YYZ       YZZ       ZZZ
      1       N    7   -0.0000    0.0000   -0.3834    0.0000    0.0000   -0.0000    0.0000   -0.3834    0.0000   -1.0017
      2       N    7   -0.0000    0.0000    0.3834   -0.0000   -0.0000   -0.0000    0.0000    0.3834   -0.0000    1.0017

  MBIS Radial Moments:
   Center  Symbol  Z      [a0^2]      [a0^3]      [a0^4]
      1       N    7   10.153311   20.222283   48.033586
      2       N    7   10.153311   20.222283   48.033586

  MBIS Valence Widths: [a0]
   Center  Symbol  Z     Width
      1       N    7    0.421162
      2       N    7    0.421162

*** tstop() called on Mac.lan at Sun Aug 10 18:25:45 2025
Module time:
	user time   =       4.97 seconds =       0.08 minutes
	system time =       2.00 seconds =       0.03 minutes
	total time  =          1 seconds =       0.02 minutes
Total time:
	user time   =      16.90 seconds =       0.28 minutes
	system time =       4.10 seconds =       0.07 minutes
	total time  =          2 seconds =       0.03 minutes

    Psi4 stopped on: Sunday, 10 August 2025 06:25PM
    Psi4 wall time for execution: 0:00:02.05

*** Psi4 exiting successfully. Buy a developer a beer!
