                               Psi4 1.9.1 release

  ==> Input File <==

--------------------------------------------------------------------------
molecule {
1 1
O           0.000000           0.000000           0.000000
N           0.000000           0.000000           1.216927
}

set {
basis              cc-pvtz
reference          uks
maxiter            500
DAMPING_PERCENTAGE 1
E_CONVERGENCE      1.0E-8
D_CONVERGENCE      1.0E-8
DIIS_MAX_VECS      400
MBIS_MAXITER       8000
guess              read
}

E, wfn = energy('b3lyp', restart_file='last_wfn', return_wfn=True)
properties('b3lyp','MBIS_CHARGES', wfn=wfn)
wfn.to_file('last_wfn')
--------------------------------------------------------------------------

    Molecular point group: c2v
  Charge       = 1
  Multiplicity = 1
  Basis Set: CC-PVTZ
    Blend: CC-PVTZ
  Basis Set: (CC-PVTZ AUX)
    Blend: CC-PVTZ-JKFIT
  @DF-UKS Final Energy:  -129.53297383922660
    Total Energy =                       -129.5329738392265995
 Dipole X            :          0.0000000            0.0000000            0.0000000
 Dipole Y            :          0.0000000            0.0000000            0.0000000
 Dipole Z            :          0.2993381           -0.0046142            0.2947240
 Magnitude           :                                                    0.2947240
    Molecular point group: c2v

    Geometry (in Angstrom), charge = 1, multiplicity = 1:

       Center              X                  Y                   Z               Mass
    ------------   -----------------  -----------------  -----------------  -----------------
         O            0.000000000000     0.000000000000    -0.568062047512    15.994914619570
         N            0.000000000000     0.000000000000     0.648864952488    14.003074004430

  Charge       = 1
  Multiplicity = 1
  Basis Set: CC-PVTZ
    Blend: CC-PVTZ
  Basis Set: (CC-PVTZ AUX)
    Blend: CC-PVTZ-JKFIT

    Orbital Energies [Eh]
    ---------------------

    Alpha Occupied:

       1A1   -19.768420     2A1   -14.995422     3A1    -1.648211
       4A1    -1.117902     1B1    -0.914360     1B2    -0.914360
       5A1    -0.906516

    Alpha Virtual:

       2B1    -0.554258     2B2    -0.554258     6A1    -0.148840
       7A1     0.071747     3B1     0.098539     3B2     0.098539
       8A1     0.144227     9A1     0.225845     4B2     0.281966
       4B1     0.281966     1A2     0.552075    10A1     0.552075
       5B1     0.699478     5B2     0.699478    11A1     0.831451
      12A1     1.120484     2A2     1.120484    13A1     1.204193
       6B1     1.583350     6B2     1.583350    14A1     1.777365
       7B1     2.380673     7B2     2.380673    15A1     2.609083
       8B2     3.063371     8B1     3.063371     3A2     3.321871
      16A1     3.321872     9B2     3.368888     9B1     3.368888
      10B2     3.591165    10B1     3.591165    17A1     3.593528
      18A1     3.699516     4A2     3.912585    19A1     3.912588
      20A1     4.199940    11B1     4.255789    11B2     4.255789
      12B2     4.623500    12B1     4.623500     5A2     4.992246
      21A1     4.992246    22A1     5.540059    23A1     5.708755
       6A2     5.708773    13B2     5.778773    13B1     5.778773
      24A1     6.281890    14B1     6.347858    14B2     6.347858
      25A1     6.777793    26A1    11.290549

    Beta Occupied:

       1A1   -19.768420     2A1   -14.995422     3A1    -1.648211
       4A1    -1.117902     1B1    -0.914360     1B2    -0.914360
       5A1    -0.906516

    Beta Virtual:

       2B1    -0.554258     2B2    -0.554258     6A1    -0.148840
       7A1     0.071747     3B1     0.098539     3B2     0.098539
       8A1     0.144227     9A1     0.225845     4B2     0.281966
       4B1     0.281966     1A2     0.552075    10A1     0.552075
       5B1     0.699478     5B2     0.699478    11A1     0.831451
      12A1     1.120484     2A2     1.120484    13A1     1.204193
       6B1     1.583350     6B2     1.583350    14A1     1.777365
       7B1     2.380673     7B2     2.380673    15A1     2.609083
       8B2     3.063371     8B1     3.063371     3A2     3.321871
      16A1     3.321872     9B2     3.368888     9B1     3.368888
      10B2     3.591165    10B1     3.591165    17A1     3.593528
      18A1     3.699516     4A2     3.912585    19A1     3.912588
      20A1     4.199940    11B1     4.255789    11B2     4.255789
      12B2     4.623500    12B1     4.623500     5A2     4.992246
      21A1     4.992246    22A1     5.540059    23A1     5.708755
       6A2     5.708773    13B2     5.778773    13B1     5.778773
      24A1     6.281890    14B1     6.347858    14B2     6.347858
      25A1     6.777793    26A1    11.290549

    Final Occupation by Irrep:
             A1    A2    B1    B2
    DOCC [     5,    0,    1,    1 ]
    SOCC [     0,    0,    0,    0 ]
    NA   [     5,    0,    1,    1 ]
    NB   [     5,    0,    1,    1 ]

  @DF-UKS Final Energy:  -129.53297383657176

   => Energetics <=

    Nuclear Repulsion Energy =             24.3514391557751608
    One-Electron Energy =                -218.6167774177453111
    Two-Electron Energy =                  76.7172705090210343
    DFT Exchange-Correlation Energy =     -11.9849060836226204
    Empirical Dispersion Energy =           0.0000000000000000
    VV10 Nonlocal Energy =                  0.0000000000000000
    Total Energy =                       -129.5329738365717560

  UHF NO Occupations:
  HONO-2 :    1 B2 2.0000000
  HONO-1 :    4 A1 2.0000000
  HONO-0 :    5 A1 2.0000000
  LUNO+0 :    6 A1 0.0000000
  LUNO+1 :    7 A1 0.0000000
  LUNO+2 :    8 A1 0.0000000
  LUNO+3 :    9 A1 0.0000000

Computation Completed

Properties will be evaluated at   0.000000,   0.000000,   0.000000 [a0]

Properties computed using the B3LYP density matrix

 Multipole Moments:

 ------------------------------------------------------------------------------------
     Multipole            Electronic (a.u.)      Nuclear  (a.u.)        Total (a.u.)
 ------------------------------------------------------------------------------------

 L = 1.  Multiply by 2.5417464519 to convert [e a0] to [Debye]
 Dipole X            :          0.0000000            0.0000000            0.0000000
 Dipole Y            :          0.0000000            0.0000000            0.0000000
 Dipole Z            :          0.2993382           -0.0046142            0.2947240
 Magnitude           :                                                    0.2947240

 L = 2.  Multiply by 1.3450342976 to convert [e a0^2] to [Debye ang]
 Quadrupole XX       :         -6.0599908            0.0000000           -6.0599908
 Quadrupole XY       :          0.0000000            0.0000000            0.0000000
 Quadrupole XZ       :          0.0000000            0.0000000            0.0000000
 Quadrupole YY       :         -6.0599908            0.0000000           -6.0599908
 Quadrupole YZ       :          0.0000000            0.0000000            0.0000000
 Quadrupole ZZ       :        -24.7446873           19.7434747           -5.0012126
 Traceless XX        :          6.2282322           -6.5811582           -0.3529261
 Traceless YY        :          6.2282322           -6.5811582           -0.3529261
 Traceless ZZ        :        -12.4564644           13.1623165            0.7058521

 ------------------------------------------------------------------------------------
  ==> Computing MBIS Charges <==

  Electron Count from Grid (Expected Number): 14.00000 (14.00000)
  Difference:  0.00000

  MBIS Charges: (a.u.)
   Center  Symbol  Z      Pop.       Charge
      1       O    8    7.667348    0.332652
      2       N    7    6.332653    0.667347

  MBIS Dipoles: [e a0]
   Center  Symbol  Z        X           Y           Z
      1       O    8    0.000000   -0.000000   -0.130683
      2       N    7    0.000000    0.000000   -0.035783

  MBIS Quadrupoles: [e a0^2]
   Center  Symbol  Z      XX        XY        XZ        YY        YZ        ZZ
      1       O    8   -3.1271    0.0000   -0.0000   -3.1271    0.0000   -3.2886
      2       N    7   -2.9329   -0.0000    0.0000   -2.9329   -0.0000   -3.2921

  MBIS Octupoles: [e a0^3]
   Center  Symbol  Z      XXX       XXY       XXZ       XYY       XYZ       XZZ       YYY       YYZ       YZZ       ZZZ
      1       O    8   -0.0000   -0.0000   -0.1153   -0.0000    0.0000    0.0000    0.0000   -0.1153    0.0000   -0.3400
      2       N    7   -0.0000    0.0000    0.0767    0.0000   -0.0000    0.0000    0.0000    0.0767   -0.0000    0.1343

  MBIS Radial Moments:
   Center  Symbol  Z      [a0^2]      [a0^3]      [a0^4]
      1       O    8    9.542778   16.620621   34.657091
      2       N    7    9.157935   17.494553   39.848493

  MBIS Valence Widths: [a0]
   Center  Symbol  Z     Width
      1       O    8    0.365072
      2       N    7    0.406620

*** tstop() called on Mac.lan at Sun Aug 10 18:42:11 2025
Module time:
	user time   =       3.85 seconds =       0.06 minutes
	system time =       1.72 seconds =       0.03 minutes
	total time  =          1 seconds =       0.02 minutes
Total time:
	user time   =      15.48 seconds =       0.26 minutes
	system time =       4.52 seconds =       0.08 minutes
	total time  =          2 seconds =       0.03 minutes

    Psi4 stopped on: Sunday, 10 August 2025 06:42PM
    Psi4 wall time for execution: 0:00:01.94

*** Psi4 exiting successfully. Buy a developer a beer!
