                               Psi4 1.9.1 release

  ==> Input File <==

--------------------------------------------------------------------------
molecule {
1 3
O           0.000000           0.000000           0.000000
H           0.000000           0.000000           1.557488
}

set {
basis              cc-pvtz
reference          uks
maxiter            500
DAMPING_PERCENTAGE 1
E_CONVERGENCE      1.0E-8
D_CONVERGENCE      1.0E-8
DIIS_MAX_VECS      400
MBIS_MAXITER       8000
guess              read
}

E, wfn = energy('b3lyp', restart_file='last_wfn', return_wfn=True)
properties('b3lyp','MBIS_CHARGES', wfn=wfn)
wfn.to_file('last_wfn')
--------------------------------------------------------------------------

    Molecular point group: c2v
  Charge       = 1
  Multiplicity = 3
  Basis Set: CC-PVTZ
    Blend: CC-PVTZ
  Basis Set: (CC-PVTZ AUX)
    Blend: CC-PVTZ-JKFIT
  @DF-UKS Final Energy:   -75.22304441873673
    Total Energy =                        -75.2230444187367340
 Dipole X            :          0.0000000            0.0000000            0.0000000
 Dipole Y            :          0.0000000            0.0000000            0.0000000
 Dipole Z            :          0.1234300            1.3731077            1.4965377
 Magnitude           :                                                    1.4965377
    Molecular point group: c2v

    Geometry (in Angstrom), charge = 1, multiplicity = 3:

       Center              X                  Y                   Z               Mass
    ------------   -----------------  -----------------  -----------------  -----------------
         O            0.000000000000     0.000000000000    -0.092318968939    15.994914619570
         H            0.000000000000     0.000000000000     1.465169031061     1.007825032230

  Charge       = 1
  Multiplicity = 3
  Basis Set: CC-PVTZ
    Blend: CC-PVTZ
  Basis Set: (CC-PVTZ AUX)
    Blend: CC-PVTZ-JKFIT

    Orbital Energies [Eh]
    ---------------------

    Alpha Occupied:

       1A1   -19.756149     2A1    -1.457150     1B2    -0.879942
       1B1    -0.879942     3A1    -0.855186

    Alpha Virtual:

       4A1    -0.469498     5A1    -0.023627     2B1     0.139252
       2B2     0.139252     6A1     0.248555     3B1     0.341304
       3B2     0.341304     7A1     0.363173     8A1     0.665297
       1A2     0.988001     9A1     0.988001     4B2     1.080067
       4B1     1.080067    10A1     1.441933    11A1     2.005169
      12A1     2.685383    13A1     2.800232     2A2     2.800236
       5B1     2.839709     5B2     2.839709     6B1     3.066731
       6B2     3.066731     7B2     3.239896     7B1     3.239896
      14A1     3.329754    15A1     3.944563     8B2     4.567375
       8B1     4.567375    16A1     4.595000     3A2     4.595001
       9B1     4.728256     9B2     4.728256    17A1     5.024617
       4A2     5.570189    18A1     5.570195    10B2     5.737942
      10B1     5.737942    19A1     6.263004    20A1     6.942652

    Beta Occupied:

       1A1   -19.696333     2A1    -1.282795     3A1    -0.797568

    Beta Virtual:

       1B2    -0.576886     1B1    -0.576886     4A1    -0.484332
       5A1    -0.037173     2B2     0.176893     2B1     0.176893
       6A1     0.276381     3B1     0.360085     3B2     0.360085
       7A1     0.385548     8A1     0.700754     9A1     1.101937
       1A2     1.101937     4B2     1.139650     4B1     1.139650
      10A1     1.464039    11A1     1.959365    12A1     2.697431
      13A1     2.760105     2A2     2.760105     5B1     2.821902
       5B2     2.821902     6B2     3.182548     6B1     3.182548
       7B1     3.206976     7B2     3.206976    14A1     3.313816
      15A1     3.958982     3A2     4.700241    16A1     4.700241
       8B2     4.718524     8B1     4.718524     9B1     4.809687
       9B2     4.809687    17A1     5.090810     4A2     5.785480
      18A1     5.785485    10B1     5.862954    10B2     5.862954
      19A1     6.331494    20A1     7.065957

    Final Occupation by Irrep:
             A1    A2    B1    B2
    DOCC [     3,    0,    0,    0 ]
    SOCC [     0,    0,    1,    1 ]
    NA   [     3,    0,    1,    1 ]
    NB   [     3,    0,    0,    0 ]

  @DF-UKS Final Energy:   -75.22304441869117

   => Energetics <=

    Nuclear Repulsion Energy =              2.7181061333121024
    One-Electron Energy =                -105.3934962445057266
    Two-Electron Energy =                  34.2443721345515044
    DFT Exchange-Correlation Energy =      -6.7920264420490648
    Empirical Dispersion Energy =           0.0000000000000000
    VV10 Nonlocal Energy =                  0.0000000000000000
    Total Energy =                        -75.2230444186911882

  UHF NO Occupations:
  HONO-2 :    3 A1 1.9779313
  HONO-1 :    1 B2 1.0000000
  HONO-0 :    1 B1 1.0000000
  LUNO+0 :    4 A1 0.0220687
  LUNO+1 :    5 A1 0.0009151
  LUNO+2 :    6 A1 0.0000015
  LUNO+3 :    7 A1 0.0000000

Computation Completed

Properties will be evaluated at   0.000000,   0.000000,   0.000000 [a0]

Properties computed using the B3LYP density matrix

 Multipole Moments:

 ------------------------------------------------------------------------------------
     Multipole            Electronic (a.u.)      Nuclear  (a.u.)        Total (a.u.)
 ------------------------------------------------------------------------------------

 L = 1.  Multiply by 2.5417464519 to convert [e a0] to [Debye]
 Dipole X            :          0.0000000            0.0000000            0.0000000
 Dipole Y            :          0.0000000            0.0000000            0.0000000
 Dipole Z            :          0.1234300            1.3731077            1.4965377
 Magnitude           :                                                    1.4965377

 L = 2.  Multiply by 1.3450342976 to convert [e a0^2] to [Debye ang]
 Quadrupole XX       :         -3.2651552            0.0000000           -3.2651552
 Quadrupole XY       :          0.0000000            0.0000000            0.0000000
 Quadrupole XZ       :          0.0000000            0.0000000            0.0000000
 Quadrupole YY       :         -3.2651552            0.0000000           -3.2651552
 Quadrupole YZ       :          0.0000000            0.0000000            0.0000000
 Quadrupole ZZ       :         -6.6759589            7.9095609            1.2336019
 Traceless XX        :          1.1369346           -2.6365203           -1.4995857
 Traceless YY        :          1.1369346           -2.6365203           -1.4995857
 Traceless ZZ        :         -2.2738692            5.2730406            2.9991714

 ------------------------------------------------------------------------------------
  ==> Computing MBIS Charges <==

  Electron Count from Grid (Expected Number):  8.00000 ( 8.00000)
  Difference: -0.00000

  MBIS Charges: (a.u.)
   Center  Symbol  Z      Pop.       Charge
      1       O    8    7.595048    0.404952
      2       H    1    0.404952    0.595048

  MBIS Dipoles: [e a0]
   Center  Symbol  Z        X           Y           Z
      1       O    8   -0.000000   -0.000000   -0.166187
      2       H    1   -0.000000    0.000000    0.085822

  MBIS Quadrupoles: [e a0^2]
   Center  Symbol  Z      XX        XY        XZ        YY        YZ        ZZ
      1       O    8   -2.9911    0.0000   -0.0000   -2.9911    0.0000   -3.6179
      2       H    1   -0.2740   -0.0000    0.0000   -0.2740    0.0000   -0.2557

  MBIS Octupoles: [e a0^3]
   Center  Symbol  Z      XXX       XXY       XXZ       XYY       XYZ       XZZ       YYY       YYZ       YZZ       ZZZ
      1       O    8   -0.0000   -0.0000   -0.1472   -0.0000   -0.0000    0.0000   -0.0000   -0.1472    0.0000   -0.5914
      2       H    1   -0.0000    0.0000    0.0523   -0.0000   -0.0000    0.0000    0.0000    0.0523    0.0000    0.1329

  MBIS Radial Moments:
   Center  Symbol  Z      [a0^2]      [a0^3]      [a0^4]
      1       O    8    9.600174   16.984101   35.945169
      2       H    1    0.803770    1.570268    3.641322

  MBIS Valence Widths: [a0]
   Center  Symbol  Z     Width
      1       O    8    0.368129
      2       H    1    0.414127

*** tstop() called on Mac.lan at Sun Aug 10 18:31:00 2025
Module time:
	user time   =       7.63 seconds =       0.13 minutes
	system time =       2.08 seconds =       0.03 minutes
	total time  =          1 seconds =       0.02 minutes
Total time:
	user time   =      47.99 seconds =       0.80 minutes
	system time =       4.36 seconds =       0.07 minutes
	total time  =          5 seconds =       0.08 minutes

    Psi4 stopped on: Sunday, 10 August 2025 06:31PM
    Psi4 wall time for execution: 0:00:05.31

*** Psi4 exiting successfully. Buy a developer a beer!
