                               Psi4 1.9.1 release

  ==> Input File <==

--------------------------------------------------------------------------
molecule {
1 4
C           0.000000           0.000000           0.000000
C           0.000000           0.000000           1.408287
}

set {
basis              cc-pvtz
reference          uks
maxiter            500
DAMPING_PERCENTAGE 1
E_CONVERGENCE      1.0E-8
D_CONVERGENCE      1.0E-8
DIIS_MAX_VECS      400
MBIS_MAXITER       8000
guess              read
}

E, wfn = energy('b3lyp', restart_file='last_wfn', return_wfn=True)
properties('b3lyp','MBIS_CHARGES', wfn=wfn)
wfn.to_file('last_wfn')
--------------------------------------------------------------------------

    Molecular point group: d2h
  Charge       = 1
  Multiplicity = 4
  Basis Set: CC-PVTZ
    Blend: CC-PVTZ
  Basis Set: (CC-PVTZ AUX)
    Blend: CC-PVTZ-JKFIT
  @DF-UKS Final Energy:   -75.43383548836172
    Total Energy =                        -75.4338354883617086
 Dipole X            :          0.0000000            0.0000000            0.0000000
 Dipole Y            :          0.0000000            0.0000000            0.0000000
 Dipole Z            :          0.0000000            0.0000000            0.0000000
 Magnitude           :                                                    0.0000000
    Molecular point group: d2h

    Geometry (in Angstrom), charge = 1, multiplicity = 4:

       Center              X                  Y                   Z               Mass
    ------------   -----------------  -----------------  -----------------  -----------------
         C            0.000000000000     0.000000000000    -0.704143500000    12.000000000000
         C            0.000000000000     0.000000000000     0.704143500000    12.000000000000

  Charge       = 1
  Multiplicity = 4
  Basis Set: CC-PVTZ
    Blend: CC-PVTZ
  Basis Set: (CC-PVTZ AUX)
    Blend: CC-PVTZ-JKFIT

    Orbital Energies [Eh]
    ---------------------

    Alpha Occupied:

       1Ag   -10.717642     1B1u  -10.717008     2Ag    -1.145139
       2B1u   -0.853286     3Ag    -0.735133     1B2u   -0.703419
       1B3u   -0.669452

    Alpha Virtual:

       1B3g   -0.431771     1B2g   -0.402243     3B1u   -0.080729
       2B2u    0.005019     2B3u    0.016653     4Ag     0.024166
       5Ag     0.034105     4B1u    0.048708     2B3g    0.097940
       2B2g    0.106726     1B1g    0.243658     6Ag     0.244169
       5B1u    0.343396     3B2u    0.348595     3B3u    0.371902
       1Au     0.511345     6B1u    0.511371     3B3g    0.796432
       3B2g    0.811300     7Ag     0.817132     7B1u    0.874544
       4B2u    1.531776     4B3u    1.556040     8Ag     1.631644
       4B3g    1.721477     4B2g    1.748156     2B1g    2.024120
       9Ag     2.024457     5B2u    2.037211     8B1u    2.042276
       5B3u    2.065679     6B2u    2.166623     6B3u    2.166976
      10Ag     2.229677     5B3g    2.428198     5B2g    2.428554
      11Ag     2.509056     3B1g    2.509336     9B1u    2.600007
       2Au     2.601120     6B3g    2.644754    10B1u    2.662474
       6B2g    2.665850     7B2u    2.890148     7B3u    2.915458
       3Au     2.926077    11B1u    2.926572    12B1u    3.324140
      12Ag     3.376015    13Ag     3.774976     7B3g    3.829054
       7B2g    3.856064    13B1u    8.952849

    Beta Occupied:

       1Ag   -10.684078     1B1u  -10.683651     2Ag    -1.061628
       1B3u   -0.626243

    Beta Virtual:

       2B1u   -0.610954     1B2u   -0.521836     3Ag    -0.488815
       1B2g   -0.339368     1B3g   -0.297098     3B1u   -0.042116
       2B3u    0.025760     2B2u    0.037817     4Ag     0.055009
       5Ag     0.089426     2B2g    0.119079     2B3g    0.133187
       4B1u    0.154531     1B1g    0.278051     6Ag     0.282717
       5B1u    0.371971     3B3u    0.420117     3B2u    0.436815
       1Au     0.550783     6B1u    0.556980     3B2g    0.850426
       3B3g    0.864907     7Ag     0.895851     7B1u    0.936298
       4B3u    1.584381     4B2u    1.601791     8Ag     1.698674
       4B2g    1.775698     4B3g    1.790203     2B1g    2.082077
       9Ag     2.089736     5B3u    2.107042     5B2u    2.126045
       8B1u    2.129332     6B3u    2.222007     6B2u    2.225759
      10Ag     2.344591     5B2g    2.486658     5B3g    2.490698
       3B1g    2.593676    11Ag     2.604403     2Au     2.676727
       9B1u    2.685552     6B2g    2.763273    10B1u    2.790081
       6B3g    2.798649     3Au     2.999708     7B3u    3.010228
      11B1u    3.010958     7B2u    3.042150    12B1u    3.419800
      12Ag     3.468766    13Ag     3.851093     7B2g    3.910547
       7B3g    3.933436    13B1u    9.001339

    Final Occupation by Irrep:
             Ag   B1g   B2g   B3g    Au   B1u   B2u   B3u
    DOCC [     2,    0,    0,    0,    0,    1,    0,    1 ]
    SOCC [     1,    0,    0,    0,    0,    1,    1,    0 ]
    NA   [     3,    0,    0,    0,    0,    2,    1,    1 ]
    NB   [     2,    0,    0,    0,    0,    1,    0,    1 ]

  @DF-UKS Final Energy:   -75.43383548872677

   => Energetics <=

    Nuclear Repulsion Energy =             13.5273417876611823
    One-Electron Energy =                -123.3670657448000441
    Two-Electron Energy =                  42.6669509332349364
    DFT Exchange-Correlation Energy =      -8.2610624648228370
    Empirical Dispersion Energy =           0.0000000000000000
    VV10 Nonlocal Energy =                  0.0000000000000000
    Total Energy =                        -75.4338354887267570

  UHF NO Occupations:
  HONO-2 :    3 Ag 1.0000000
  HONO-1 :    1B2u 1.0000000
  HONO-0 :    2B1u 1.0000000
  LUNO+0 :    2B3u 0.0009283
  LUNO+1 :    4 Ag 0.0005717
  LUNO+2 :    3B1u 0.0000007
  LUNO+3 :    5 Ag 0.0000004

Computation Completed

Properties will be evaluated at   0.000000,   0.000000,   0.000000 [a0]

Properties computed using the B3LYP density matrix

 Multipole Moments:

 ------------------------------------------------------------------------------------
     Multipole            Electronic (a.u.)      Nuclear  (a.u.)        Total (a.u.)
 ------------------------------------------------------------------------------------

 L = 1.  Multiply by 2.5417464519 to convert [e a0] to [Debye]
 Dipole X            :          0.0000000            0.0000000            0.0000000
 Dipole Y            :          0.0000000            0.0000000            0.0000000
 Dipole Z            :          0.0000000            0.0000000            0.0000000
 Magnitude           :                                                    0.0000000

 L = 2.  Multiply by 1.3450342976 to convert [e a0^2] to [Debye ang]
 Quadrupole XX       :         -7.4504683            0.0000000           -7.4504683
 Quadrupole XY       :          0.0000000            0.0000000            0.0000000
 Quadrupole XZ       :          0.0000000            0.0000000            0.0000000
 Quadrupole YY       :         -6.1469203            0.0000000           -6.1469203
 Quadrupole YZ       :          0.0000000            0.0000000            0.0000000
 Quadrupole ZZ       :        -24.3843226           21.2471816           -3.1371410
 Traceless XX        :          5.2101021           -7.0823939           -1.8722918
 Traceless YY        :          6.5136501           -7.0823939           -0.5687438
 Traceless ZZ        :        -11.7237522           14.1647877            2.4410356

 ------------------------------------------------------------------------------------
  ==> Computing MBIS Charges <==

  Electron Count from Grid (Expected Number): 11.00000 (11.00000)
  Difference:  0.00000

  MBIS Charges: (a.u.)
   Center  Symbol  Z      Pop.       Charge
      1       C    6    5.500000    0.500000
      2       C    6    5.500000    0.500000

  MBIS Dipoles: [e a0]
   Center  Symbol  Z        X           Y           Z
      1       C    6   -0.000000    0.000000   -0.413839
      2       C    6   -0.000000    0.000000    0.413839

  MBIS Quadrupoles: [e a0^2]
   Center  Symbol  Z      XX        XY        XZ        YY        YZ        ZZ
      1       C    6   -3.7252    0.0000   -0.0000   -3.0735   -0.0000   -3.5552
      2       C    6   -3.7252    0.0000    0.0000   -3.0735    0.0000   -3.5552

  MBIS Octupoles: [e a0^3]
   Center  Symbol  Z      XXX       XXY       XXZ       XYY       XYZ       XZZ       YYY       YYZ       YZZ       ZZZ
      1       C    6   -0.0000    0.0000   -0.6082   -0.0000   -0.0000   -0.0000    0.0000   -0.3948    0.0000   -1.1024
      2       C    6   -0.0000    0.0000    0.6082   -0.0000    0.0000   -0.0000    0.0000    0.3948    0.0000    1.1024

  MBIS Radial Moments:
   Center  Symbol  Z      [a0^2]      [a0^3]      [a0^4]
      1       C    6   10.353904   23.117351   61.551037
      2       C    6   10.353904   23.117351   61.551037

  MBIS Valence Widths: [a0]
   Center  Symbol  Z     Width
      1       C    6    0.479115
      2       C    6    0.479115

*** tstop() called on Mac.lan at Sun Aug 10 18:16:23 2025
Module time:
	user time   =       3.72 seconds =       0.06 minutes
	system time =       2.43 seconds =       0.04 minutes
	total time  =          1 seconds =       0.02 minutes
Total time:
	user time   =      15.98 seconds =       0.27 minutes
	system time =       5.27 seconds =       0.09 minutes
	total time  =          2 seconds =       0.03 minutes

    Psi4 stopped on: Sunday, 10 August 2025 06:16PM
    Psi4 wall time for execution: 0:00:02.10

*** Psi4 exiting successfully. Buy a developer a beer!
