                               Psi4 1.9.1 release

  ==> Input File <==

--------------------------------------------------------------------------
molecule {
1 3
N           0.000000           0.000000           0.000000
C           0.000000           0.000000           0.919902
}

set {
basis              cc-pvtz
reference          uks
maxiter            500
DAMPING_PERCENTAGE 1
E_CONVERGENCE      1.0E-8
D_CONVERGENCE      1.0E-8
DIIS_MAX_VECS      400
MBIS_MAXITER       8000
guess              read
}

E, wfn = energy('b3lyp', restart_file='last_wfn', return_wfn=True)
properties('b3lyp','MBIS_CHARGES', wfn=wfn)
wfn.to_file('last_wfn')
--------------------------------------------------------------------------

    Molecular point group: c2v
  Charge       = 1
  Multiplicity = 3
  Basis Set: CC-PVTZ
    Blend: CC-PVTZ
  Basis Set: (CC-PVTZ AUX)
    Blend: CC-PVTZ-JKFIT
  @DF-UKS Final Energy:   -91.93392139859708
    Total Energy =                        -91.9339213985970787
 Dipole X            :          0.0000000            0.0000000            0.0000000
 Dipole Y            :          0.0000000            0.0000000            0.0000000
 Dipole Z            :          0.8884809            0.0012330            0.8897139
 Magnitude           :                                                    0.8897139
    Molecular point group: c2v

    Geometry (in Angstrom), charge = 1, multiplicity = 3:

       Center              X                  Y                   Z               Mass
    ------------   -----------------  -----------------  -----------------  -----------------
         N            0.000000000000     0.000000000000    -0.424519962452    14.003074004430
         C            0.000000000000     0.000000000000     0.495382037548    12.000000000000

  Charge       = 1
  Multiplicity = 3
  Basis Set: CC-PVTZ
    Blend: CC-PVTZ
  Basis Set: (CC-PVTZ AUX)
    Blend: CC-PVTZ-JKFIT

    Orbital Energies [Eh]
    ---------------------

    Alpha Occupied:

       1A1   -14.788169     2A1   -10.730443     3A1    -1.537399
       1B1    -0.957752     1B2    -0.906218     4A1    -0.871767
       5A1    -0.799996

    Alpha Virtual:

       2B1    -0.323576     2B2    -0.290605     6A1    -0.095999
       3B1    -0.039394     3B2    -0.027054     7A1    -0.023197
       8A1     0.153527     4B1     0.218801     4B2     0.234824
       1A2     0.238737     9A1     0.239292    10A1     0.447859
       5B1     0.552928     5B2     0.574756    11A1     0.636226
       2A2     0.855731    12A1     0.856769    13A1     1.166156
       6B1     1.214094     6B2     1.236230     7B1     1.442492
       7B2     1.471115    14A1     1.606946    15A1     1.960156
       8B1     2.164700     8B2     2.165017    16A1     2.331814
       3A2     2.333128    17A1     2.391767     9B1     2.429204
       9B2     2.454749     4A2     2.516251    18A1     2.518102
      10B1     2.721530    10B2     2.763268    19A1     2.845617
      11B1     3.139282    11B2     3.171699    12B1     3.597251
      12B2     3.597407    20A1     4.080518     5A2     4.083792
      21A1     4.107934     6A2     4.507594    22A1     4.508204
      13B1     4.541650    13B2     4.574803    23A1     5.042167
      24A1     5.295593    14B1     5.721275    14B2     5.758886
      25A1     7.122195    26A1    15.930972

    Beta Occupied:

       1A1   -14.774632     2A1   -10.698449     3A1    -1.465350
       1B2    -0.877838     4A1    -0.781528

    Beta Virtual:

       1B1    -0.749831     5A1    -0.605656     2B2    -0.249528
       2B1    -0.222667     6A1    -0.079173     3B2    -0.017255
       3B1    -0.008530     7A1     0.021049     8A1     0.170404
       4B2     0.242038     4B1     0.251959     1A2     0.276007
       9A1     0.280216    10A1     0.514351     5B2     0.607092
       5B1     0.615028    11A1     0.655171     2A2     0.882526
      12A1     0.885777    13A1     1.231654     6B2     1.245461
       6B1     1.249391     7B2     1.501530     7B1     1.513814
      14A1     1.663434    15A1     2.023763     8B2     2.221366
       8B1     2.224267     3A2     2.390059    16A1     2.395097
      17A1     2.460687     9B2     2.547839     9B1     2.575080
       4A2     2.608856    18A1     2.621257    10B2     2.779981
      10B1     2.794760    19A1     2.958708    11B2     3.209076
      11B1     3.222770    12B2     3.636884    12B1     3.638373
       5A2     4.126882    20A1     4.132581    21A1     4.144456
       6A2     4.549342    22A1     4.554480    13B2     4.585417
      13B1     4.589947    23A1     5.073198    24A1     5.340977
      14B2     5.793384    14B1     5.809287    25A1     7.162121
      26A1    15.976298

    Final Occupation by Irrep:
             A1    A2    B1    B2
    DOCC [     4,    0,    0,    1 ]
    SOCC [     1,    0,    1,    0 ]
    NA   [     5,    0,    1,    1 ]
    NB   [     4,    0,    0,    1 ]

  @DF-UKS Final Energy:   -91.93392139830434

   => Energetics <=

    Nuclear Repulsion Energy =             24.1606636882407066
    One-Electron Energy =                -165.9193604222954832
    Two-Electron Energy =                  59.6642485095877504
    DFT Exchange-Correlation Energy =      -9.8394731738373000
    Empirical Dispersion Energy =           0.0000000000000000
    VV10 Nonlocal Energy =                  0.0000000000000000
    Total Energy =                        -91.9339213983043351

  UHF NO Occupations:
  HONO-2 :    1 B2 1.9987780
  HONO-1 :    5 A1 1.0000000
  HONO-0 :    1 B1 1.0000000
  LUNO+0 :    2 B2 0.0012220
  LUNO+1 :    6 A1 0.0003111
  LUNO+2 :    7 A1 0.0002039
  LUNO+3 :    8 A1 0.0000008

Computation Completed

Properties will be evaluated at   0.000000,   0.000000,   0.000000 [a0]

Properties computed using the B3LYP density matrix

 Multipole Moments:

 ------------------------------------------------------------------------------------
     Multipole            Electronic (a.u.)      Nuclear  (a.u.)        Total (a.u.)
 ------------------------------------------------------------------------------------

 L = 1.  Multiply by 2.5417464519 to convert [e a0] to [Debye]
 Dipole X            :          0.0000000            0.0000000            0.0000000
 Dipole Y            :          0.0000000            0.0000000            0.0000000
 Dipole Z            :          0.8884809            0.0012330            0.8897139
 Magnitude           :                                                    0.8897139

 L = 2.  Multiply by 1.3450342976 to convert [e a0^2] to [Debye ang]
 Quadrupole XX       :         -5.1259679            0.0000000           -5.1259679
 Quadrupole XY       :          0.0000000            0.0000000            0.0000000
 Quadrupole XZ       :          0.0000000            0.0000000            0.0000000
 Quadrupole YY       :         -5.9441616            0.0000000           -5.9441616
 Quadrupole YZ       :          0.0000000            0.0000000            0.0000000
 Quadrupole ZZ       :        -15.0565228            9.7630790           -5.2934438
 Traceless XX        :          3.5829162           -3.2543597            0.3285565
 Traceless YY        :          2.7647225           -3.2543597           -0.4896372
 Traceless ZZ        :         -6.3476387            6.5087193            0.1610806

 ------------------------------------------------------------------------------------
  ==> Computing MBIS Charges <==

  Electron Count from Grid (Expected Number): 12.00000 (12.00000)
  Difference: -0.00000

  MBIS Charges: (a.u.)
   Center  Symbol  Z      Pop.       Charge
      1       N    7    6.952591    0.047409
      2       C    6    5.047409    0.952591

  MBIS Dipoles: [e a0]
   Center  Symbol  Z        X           Y           Z
      1       N    7    0.000000    0.000000   -0.044221
      2       C    6   -0.000000    0.000000    0.080212

  MBIS Quadrupoles: [e a0^2]
   Center  Symbol  Z      XX        XY        XZ        YY        YZ        ZZ
      1       N    7   -3.0018    0.0000    0.0000   -3.4727    0.0000   -3.8132
      2       C    6   -2.1242    0.0000    0.0000   -2.4715    0.0000   -2.5667

  MBIS Octupoles: [e a0^3]
   Center  Symbol  Z      XXX       XXY       XXZ       XYY       XYZ       XZZ       YYY       YYZ       YZZ       ZZZ
      1       N    7   -0.0000   -0.0000    0.0563   -0.0000    0.0000   -0.0000   -0.0000   -0.0881    0.0000    0.1795
      2       C    6   -0.0000   -0.0000   -0.0724   -0.0000    0.0000   -0.0000    0.0000    0.0154    0.0000   -0.1568

  MBIS Radial Moments:
   Center  Symbol  Z      [a0^2]      [a0^3]      [a0^4]
      1       N    7   10.287636   19.707219   45.150653
      2       C    6    7.162382   14.164313   33.632019

  MBIS Valence Widths: [a0]
   Center  Symbol  Z     Width
      1       N    7    0.403020
      2       C    6    0.418408

*** tstop() called on Mac.lan at Sun Aug 10 18:33:11 2025
Module time:
	user time   =       4.59 seconds =       0.08 minutes
	system time =       2.02 seconds =       0.03 minutes
	total time  =          0 seconds =       0.00 minutes
Total time:
	user time   =      20.91 seconds =       0.35 minutes
	system time =       4.51 seconds =       0.08 minutes
	total time  =          2 seconds =       0.03 minutes

    Psi4 stopped on: Sunday, 10 August 2025 06:33PM
    Psi4 wall time for execution: 0:00:02.51

*** Psi4 exiting successfully. Buy a developer a beer!
