                               Psi4 1.9.1 release

  ==> Input File <==

--------------------------------------------------------------------------
molecule {
1 3
O           0.000000           0.000000           0.000000
H           0.000000           0.000000           1.462132
}

set {
basis              cc-pvtz
reference          uks
maxiter            500
DAMPING_PERCENTAGE 1
E_CONVERGENCE      1.0E-8
D_CONVERGENCE      1.0E-8
DIIS_MAX_VECS      400
MBIS_MAXITER       8000
guess              read
}

E, wfn = energy('b3lyp', restart_file='last_wfn', return_wfn=True)
properties('b3lyp','MBIS_CHARGES', wfn=wfn)
wfn.to_file('last_wfn')
--------------------------------------------------------------------------

    Molecular point group: c2v
  Charge       = 1
  Multiplicity = 3
  Basis Set: CC-PVTZ
    Blend: CC-PVTZ
  Basis Set: (CC-PVTZ AUX)
    Blend: CC-PVTZ-JKFIT
  @DF-UKS Final Energy:   -75.23549743828636
    Total Energy =                        -75.2354974382863588
 Dipole X            :          0.0000000            0.0000000            0.0000000
 Dipole Y            :          0.0000000            0.0000000            0.0000000
 Dipole Z            :          0.0936376            1.2890402            1.3826778
 Magnitude           :                                                    1.3826778
    Molecular point group: c2v

    Geometry (in Angstrom), charge = 1, multiplicity = 3:

       Center              X                  Y                   Z               Mass
    ------------   -----------------  -----------------  -----------------  -----------------
         O            0.000000000000     0.000000000000    -0.086666811361    15.994914619570
         H            0.000000000000     0.000000000000     1.375465188639     1.007825032230

  Charge       = 1
  Multiplicity = 3
  Basis Set: CC-PVTZ
    Blend: CC-PVTZ
  Basis Set: (CC-PVTZ AUX)
    Blend: CC-PVTZ-JKFIT

    Orbital Energies [Eh]
    ---------------------

    Alpha Occupied:

       1A1   -19.767336     2A1    -1.469770     1B2    -0.890315
       1B1    -0.890315     3A1    -0.872190

    Alpha Virtual:

       4A1    -0.455680     5A1    -0.028338     2B1     0.135155
       2B2     0.135155     6A1     0.236182     3B1     0.337505
       3B2     0.337505     7A1     0.397915     8A1     0.673340
       9A1     0.977778     1A2     0.977778     4B2     1.098914
       4B1     1.098914    10A1     1.511915    11A1     1.994833
      12A1     2.673351     2A2     2.788914    13A1     2.788916
       5B1     2.815217     5B2     2.815217     6B1     3.098895
       6B2     3.098895     7B2     3.248685     7B1     3.248685
      14A1     3.365276    15A1     4.075110     8B2     4.557268
       8B1     4.557268     3A2     4.591901    16A1     4.591901
       9B1     4.799726     9B2     4.799726    17A1     5.170885
       4A2     5.562122    18A1     5.562124    10B2     5.775434
      10B1     5.775434    19A1     6.398331    20A1     6.953127

    Beta Occupied:

       1A1   -19.708632     2A1    -1.299533     3A1    -0.818793

    Beta Virtual:

       1B2    -0.587872     1B1    -0.587872     4A1    -0.460201
       5A1    -0.037748     2B1     0.178244     2B2     0.178244
       6A1     0.260853     3B1     0.357130     3B2     0.357130
       7A1     0.427883     8A1     0.704726     1A2     1.091280
       9A1     1.091280     4B2     1.156042     4B1     1.156042
      10A1     1.538733    11A1     1.961809    12A1     2.687672
       2A2     2.759561    13A1     2.759564     5B1     2.822516
       5B2     2.822516     6B1     3.205396     6B2     3.205396
       7B1     3.226138     7B2     3.226138    14A1     3.356194
      15A1     4.099984    16A1     4.694973     3A2     4.694973
       8B2     4.708534     8B1     4.708534     9B1     4.877819
       9B2     4.877819    17A1     5.231676     4A2     5.777138
      18A1     5.777140    10B2     5.894393    10B1     5.894393
      19A1     6.464025    20A1     7.069946

    Final Occupation by Irrep:
             A1    A2    B1    B2
    DOCC [     3,    0,    0,    0 ]
    SOCC [     0,    0,    1,    1 ]
    NA   [     3,    0,    1,    1 ]
    NB   [     3,    0,    0,    0 ]

  @DF-UKS Final Energy:   -75.23549743823231

   => Energetics <=

    Nuclear Repulsion Energy =              2.8953731163533805
    One-Electron Energy =                -105.6568345811095924
    Two-Electron Energy =                  34.3240975241055963
    DFT Exchange-Correlation Energy =      -6.7981334975817029
    Empirical Dispersion Energy =           0.0000000000000000
    VV10 Nonlocal Energy =                  0.0000000000000000
    Total Energy =                        -75.2354974382323149

  UHF NO Occupations:
  HONO-2 :    3 A1 1.9873090
  HONO-1 :    1 B2 1.0000000
  HONO-0 :    1 B1 1.0000000
  LUNO+0 :    4 A1 0.0126910
  LUNO+1 :    5 A1 0.0009028
  LUNO+2 :    6 A1 0.0000014
  LUNO+3 :    7 A1 0.0000000

Computation Completed

Properties will be evaluated at   0.000000,   0.000000,   0.000000 [a0]

Properties computed using the B3LYP density matrix

 Multipole Moments:

 ------------------------------------------------------------------------------------
     Multipole            Electronic (a.u.)      Nuclear  (a.u.)        Total (a.u.)
 ------------------------------------------------------------------------------------

 L = 1.  Multiply by 2.5417464519 to convert [e a0] to [Debye]
 Dipole X            :          0.0000000            0.0000000            0.0000000
 Dipole Y            :          0.0000000            0.0000000            0.0000000
 Dipole Z            :          0.0936376            1.2890402            1.3826778
 Magnitude           :                                                    1.3826778

 L = 2.  Multiply by 1.3450342976 to convert [e a0^2] to [Debye ang]
 Quadrupole XX       :         -3.2348346            0.0000000           -3.2348346
 Quadrupole XY       :          0.0000000            0.0000000            0.0000000
 Quadrupole XZ       :          0.0000000            0.0000000            0.0000000
 Quadrupole YY       :         -3.2348346            0.0000000           -3.2348346
 Quadrupole YZ       :          0.0000000            0.0000000            0.0000000
 Quadrupole ZZ       :         -6.3356464            6.9706956            0.6350492
 Traceless XX        :          1.0336039           -2.3235652           -1.2899613
 Traceless YY        :          1.0336039           -2.3235652           -1.2899613
 Traceless ZZ        :         -2.0672078            4.6471304            2.5799226

 ------------------------------------------------------------------------------------
  ==> Computing MBIS Charges <==

  Electron Count from Grid (Expected Number):  8.00000 ( 8.00000)
  Difference: -0.00000

  MBIS Charges: (a.u.)
   Center  Symbol  Z      Pop.       Charge
      1       O    8    7.587842    0.412158
      2       H    1    0.412158    0.587842

  MBIS Dipoles: [e a0]
   Center  Symbol  Z        X           Y           Z
      1       O    8   -0.000000   -0.000000   -0.158709
      2       H    1    0.000000    0.000000    0.080938

  MBIS Quadrupoles: [e a0^2]
   Center  Symbol  Z      XX        XY        XZ        YY        YZ        ZZ
      1       O    8   -2.9721    0.0000   -0.0000   -2.9721    0.0000   -3.5787
      2       H    1   -0.2627    0.0000   -0.0000   -0.2627    0.0000   -0.2415

  MBIS Octupoles: [e a0^3]
   Center  Symbol  Z      XXX       XXY       XXZ       XYY       XYZ       XZZ       YYY       YYZ       YZZ       ZZZ
      1       O    8   -0.0000   -0.0000   -0.1360   -0.0000   -0.0000    0.0000   -0.0000   -0.1360   -0.0000   -0.5400
      2       H    1    0.0000   -0.0000    0.0431    0.0000    0.0000   -0.0000    0.0000    0.0431   -0.0000    0.1174

  MBIS Radial Moments:
   Center  Symbol  Z      [a0^2]      [a0^3]      [a0^4]
      1       O    8    9.523023   16.752256   35.237306
      2       H    1    0.766924    1.452247    3.266205

  MBIS Valence Widths: [a0]
   Center  Symbol  Z     Width
      1       O    8    0.367007
      2       H    1    0.400904

*** tstop() called on Mac.lan at Sun Aug 10 18:30:35 2025
Module time:
	user time   =       2.79 seconds =       0.05 minutes
	system time =       1.97 seconds =       0.03 minutes
	total time  =          1 seconds =       0.02 minutes
Total time:
	user time   =      11.69 seconds =       0.19 minutes
	system time =       4.45 seconds =       0.07 minutes
	total time  =          2 seconds =       0.03 minutes

    Psi4 stopped on: Sunday, 10 August 2025 06:30PM
    Psi4 wall time for execution: 0:00:01.57

*** Psi4 exiting successfully. Buy a developer a beer!
