                               Psi4 1.9.1 release

  ==> Input File <==

--------------------------------------------------------------------------
molecule {
1 2
H           0.000000           0.000000           0.000000
H           0.000000           0.000000           1.200145
}

set {
basis              cc-pvtz
reference          uks
maxiter            500
DAMPING_PERCENTAGE 1
E_CONVERGENCE      1.0E-8
D_CONVERGENCE      1.0E-8
DIIS_MAX_VECS      400
MBIS_MAXITER       8000
guess              read
}

E, wfn = energy('b3lyp', restart_file='last_wfn', return_wfn=True)
properties('b3lyp','MBIS_CHARGES', wfn=wfn)
wfn.to_file('last_wfn')
--------------------------------------------------------------------------

    Molecular point group: d2h
  Charge       = 1
  Multiplicity = 2
  Basis Set: CC-PVTZ
    Blend: CC-PVTZ
  Basis Set: (CC-PVTZ AUX)
    Blend: CC-PVTZ-JKFIT
  @DF-UKS Final Energy:    -0.60937561308439
    Total Energy =                         -0.6093756130843905
 Dipole X            :          0.0000000            0.0000000            0.0000000
 Dipole Y            :          0.0000000            0.0000000            0.0000000
 Dipole Z            :          0.0000000            0.0000000            0.0000000
 Magnitude           :                                                    0.0000000
    Molecular point group: d2h

    Geometry (in Angstrom), charge = 1, multiplicity = 2:

       Center              X                  Y                   Z               Mass
    ------------   -----------------  -----------------  -----------------  -----------------
         H            0.000000000000     0.000000000000    -0.600072500000     1.007825032230
         H            0.000000000000     0.000000000000     0.600072500000     1.007825032230

  Charge       = 1
  Multiplicity = 2
  Basis Set: CC-PVTZ
    Blend: CC-PVTZ
  Basis Set: (CC-PVTZ AUX)
    Blend: CC-PVTZ-JKFIT

    Orbital Energies [Eh]
    ---------------------

    Alpha Occupied:

       1Ag    -0.870918

    Alpha Virtual:

       1B1u   -0.458485     2Ag    -0.079294     2B1u    0.025326
       1B3u    0.071781     1B2u    0.071781     3Ag     0.328804
       1B3g    0.436965     1B2g    0.436965     3B1u    0.860143
       4Ag     1.753154     4B1u    1.901436     2B3u    2.336061
       2B2u    2.336061     5Ag     2.376830     6Ag     2.533945
       1B1g    2.533945     5B1u    2.911523     1Au     2.911523
       3B2u    3.072384     3B3u    3.072384     2B3g    3.142096
       2B2g    3.142096     6B1u    3.287580     3B2g    3.694900
       3B3g    3.694900     7Ag     3.811680     7B1u    4.953432

    Beta Occupied:

    Beta Virtual:

       1Ag    -0.537166     1B1u   -0.261001     2Ag     0.012637
       2B1u    0.139129     1B3u    0.210601     1B2u    0.210601
       3Ag     0.471108     1B2g    0.554086     1B3g    0.554086
       3B1u    0.983163     4Ag     2.053814     4B1u    2.192038
       2B2u    2.539557     2B3u    2.539557     5Ag     2.636241
       1B1g    2.719676     6Ag     2.719677     1Au     3.095440
       5B1u    3.095441     3B2u    3.320861     3B3u    3.320861
       2B3g    3.397708     2B2g    3.397708     6B1u    3.520865
       3B3g    3.887022     3B2g    3.887022     7Ag     4.039510
       7B1u    5.187663

    Final Occupation by Irrep:
             Ag   B1g   B2g   B3g    Au   B1u   B2u   B3u
    DOCC [     0,    0,    0,    0,    0,    0,    0,    0 ]
    SOCC [     1,    0,    0,    0,    0,    0,    0,    0 ]
    NA   [     1,    0,    0,    0,    0,    0,    0,    0 ]
    NB   [     0,    0,    0,    0,    0,    0,    0,    0 ]

  @DF-UKS Final Energy:    -0.60937561304559

   => Energetics <=

    Nuclear Repulsion Energy =              0.4409277301242767
    One-Electron Energy =                  -1.0389154025126395
    Two-Electron Energy =                   0.2488164599541649
    DFT Exchange-Correlation Energy =      -0.2602044006113936
    Empirical Dispersion Energy =           0.0000000000000000
    VV10 Nonlocal Energy =                  0.0000000000000000
    Total Energy =                         -0.6093756130455915

  UHF NO Occupations:
  HONO-0 :    1 Ag 1.0000000
  LUNO+0 :    2 Ag 0.0000000
  LUNO+1 :    3 Ag 0.0000000
  LUNO+2 :    3B3u 0.0000000
  LUNO+3 :    2B3u 0.0000000

Computation Completed

Properties will be evaluated at   0.000000,   0.000000,   0.000000 [a0]

Properties computed using the B3LYP density matrix

 Multipole Moments:

 ------------------------------------------------------------------------------------
     Multipole            Electronic (a.u.)      Nuclear  (a.u.)        Total (a.u.)
 ------------------------------------------------------------------------------------

 L = 1.  Multiply by 2.5417464519 to convert [e a0] to [Debye]
 Dipole X            :          0.0000000            0.0000000            0.0000000
 Dipole Y            :          0.0000000            0.0000000            0.0000000
 Dipole Z            :          0.0000000            0.0000000            0.0000000
 Magnitude           :                                                    0.0000000

 L = 2.  Multiply by 1.3450342976 to convert [e a0^2] to [Debye ang]
 Quadrupole XX       :         -0.6725558            0.0000000           -0.6725558
 Quadrupole XY       :          0.0000000            0.0000000            0.0000000
 Quadrupole XZ       :          0.0000000            0.0000000            0.0000000
 Quadrupole YY       :         -0.6725558            0.0000000           -0.6725558
 Quadrupole YZ       :          0.0000000            0.0000000            0.0000000
 Quadrupole ZZ       :         -1.4053076            2.5717881            1.1664805
 Traceless XX        :          0.2442506           -0.8572627           -0.6130121
 Traceless YY        :          0.2442506           -0.8572627           -0.6130121
 Traceless ZZ        :         -0.4885012            1.7145254            1.2260242

 ------------------------------------------------------------------------------------
  ==> Computing MBIS Charges <==

  Electron Count from Grid (Expected Number):  1.00000 ( 1.00000)
  Difference:  0.00000

  MBIS Charges: (a.u.)
   Center  Symbol  Z      Pop.       Charge
      1       H    1    0.500000    0.500000
      2       H    1    0.500000    0.500000

  MBIS Dipoles: [e a0]
   Center  Symbol  Z        X           Y           Z
      1       H    1    0.000000    0.000000   -0.119204
      2       H    1    0.000000    0.000000    0.119204

  MBIS Quadrupoles: [e a0^2]
   Center  Symbol  Z      XX        XY        XZ        YY        YZ        ZZ
      1       H    1   -0.3363    0.0000   -0.0000   -0.3363   -0.0000   -0.3301
      2       H    1   -0.3363    0.0000    0.0000   -0.3363    0.0000   -0.3301

  MBIS Octupoles: [e a0^3]
   Center  Symbol  Z      XXX       XXY       XXZ       XYY       XYZ       XZZ       YYY       YYZ       YZZ       ZZZ
      1       H    1    0.0000    0.0000   -0.0859    0.0000   -0.0000    0.0000    0.0000   -0.0859    0.0000   -0.1816
      2       H    1    0.0000    0.0000    0.0859    0.0000    0.0000    0.0000    0.0000    0.0859    0.0000    0.1816

  MBIS Radial Moments:
   Center  Symbol  Z      [a0^2]      [a0^3]      [a0^4]
      1       H    1    1.002612    1.964775    4.568262
      2       H    1    1.002612    1.964775    4.568262

  MBIS Valence Widths: [a0]
   Center  Symbol  Z     Width
      1       H    1    0.416347
      2       H    1    0.416347

*** tstop() called on Mac.lan at Sun Aug 10 18:11:36 2025
Module time:
	user time   =       0.56 seconds =       0.01 minutes
	system time =       1.22 seconds =       0.02 minutes
	total time  =          0 seconds =       0.00 minutes
Total time:
	user time   =       1.18 seconds =       0.02 minutes
	system time =       3.42 seconds =       0.06 minutes
	total time  =          0 seconds =       0.00 minutes

    Psi4 stopped on: Sunday, 10 August 2025 06:11PM
    Psi4 wall time for execution: 0:00:00.60

*** Psi4 exiting successfully. Buy a developer a beer!
