                               Psi4 1.9.1 release

  ==> Input File <==

--------------------------------------------------------------------------
molecule {
1 3
N           0.000000           0.000000           0.000000
C           0.000000           0.000000           1.824724
}

set {
basis              cc-pvtz
reference          uks
maxiter            500
DAMPING_PERCENTAGE 1
E_CONVERGENCE      1.0E-8
D_CONVERGENCE      1.0E-8
DIIS_MAX_VECS      400
MBIS_MAXITER       8000
guess              read
}

E, wfn = energy('b3lyp', restart_file='last_wfn', return_wfn=True)
properties('b3lyp','MBIS_CHARGES', wfn=wfn)
wfn.to_file('last_wfn')
--------------------------------------------------------------------------

    Molecular point group: c2v
  Charge       = 1
  Multiplicity = 3
  Basis Set: CC-PVTZ
    Blend: CC-PVTZ
  Basis Set: (CC-PVTZ AUX)
    Blend: CC-PVTZ-JKFIT
  @DF-UKS Final Energy:   -92.11297667195493
    Total Energy =                        -92.1129766719549252
 Dipole X            :          0.0000000            0.0000000            0.0000000
 Dipole Y            :          0.0000000            0.0000000            0.0000000
 Dipole Z            :          0.5578149            0.0024458            0.5602608
 Magnitude           :                                                    0.5602608
    Molecular point group: c2v

    Geometry (in Angstrom), charge = 1, multiplicity = 3:

       Center              X                  Y                   Z               Mass
    ------------   -----------------  -----------------  -----------------  -----------------
         N            0.000000000000     0.000000000000    -0.842080747694    14.003074004430
         C            0.000000000000     0.000000000000     0.982643252306    12.000000000000

  Charge       = 1
  Multiplicity = 3
  Basis Set: CC-PVTZ
    Blend: CC-PVTZ
  Basis Set: (CC-PVTZ AUX)
    Blend: CC-PVTZ-JKFIT

    Orbital Energies [Eh]
    ---------------------

    Alpha Occupied:

       1A1   -14.839050     2A1   -10.756772     3A1    -1.192546
       4A1    -0.912076     5A1    -0.725811     1B1    -0.713689
       1B2    -0.704847

    Alpha Virtual:

       2B1    -0.492527     2B2    -0.441261     6A1    -0.378808
       7A1     0.018785     3B1     0.035684     3B2     0.056788
       8A1     0.071083     9A1     0.167783     4B1     0.179883
       4B2     0.188094     5B1     0.344083    10A1     0.356650
       1A2     0.357058     5B2     0.365863    11A1     0.479300
      12A1     0.680709     2A2     0.694369    13A1     0.694756
       6B1     0.906733     6B2     0.921717    14A1     1.091226
       7B1     1.572609     7B2     1.615464    15A1     1.826678
      16A1     2.178944     8B1     2.228353     8B2     2.253334
       3A2     2.297420    17A1     2.300153     9B1     2.325531
       9B2     2.326142    10B1     2.490746    10B2     2.509678
      18A1     2.567149     4A2     2.572239    19A1     2.644307
      11B1     2.646697    11B2     2.686394    20A1     3.132017
      21A1     3.362547    12B1     3.462175    12B2     3.462176
       5A2     3.491099    22A1     3.491192    13B1     3.675176
      13B2     3.685549    23A1     3.960754     6A2     3.981022
      24A1     3.981200    14B1     4.230761    14B2     4.239190
      25A1     4.904463    26A1     5.591743

    Beta Occupied:

       1A1   -14.787682     2A1   -10.764484     3A1    -1.065864
       4A1    -0.874293     1B2    -0.643140

    Beta Virtual:

       5A1    -0.555634     1B1    -0.530136     2B2    -0.441599
       2B1    -0.421760     6A1    -0.301273     3B2     0.028169
       7A1     0.036487     3B1     0.041305     8A1     0.077108
       9A1     0.208981     4B2     0.238533     4B1     0.239363
       1A2     0.330110    10A1     0.335180     5B2     0.374134
       5B1     0.382994    11A1     0.526586    12A1     0.718455
       2A2     0.775761    13A1     0.776207     6B2     0.973751
       6B1     0.975884    14A1     1.152829     7B2     1.547663
       7B1     1.575517    15A1     1.866549    16A1     2.214829
       8B2     2.271208     9B2     2.277601     8B1     2.278341
       3A2     2.280885     9B1     2.283530    17A1     2.287719
       4A2     2.508566    18A1     2.520635    10B2     2.566390
      10B1     2.576477    11B2     2.684574    19A1     2.693537
      11B1     2.702916    20A1     3.179825    21A1     3.391875
      12B2     3.578842    12B1     3.578859     5A2     3.596247
      22A1     3.596576    13B2     3.777180    13B1     3.778772
      23A1     4.061847     6A2     4.141321    24A1     4.141720
      14B2     4.367057    14B1     4.368569    25A1     4.988380
      26A1     5.679775

    Final Occupation by Irrep:
             A1    A2    B1    B2
    DOCC [     4,    0,    0,    1 ]
    SOCC [     1,    0,    1,    0 ]
    NA   [     5,    0,    1,    1 ]
    NB   [     4,    0,    0,    1 ]

  @DF-UKS Final Energy:   -92.11297666841205

   => Energetics <=

    Nuclear Repulsion Energy =             12.1801668899734992
    One-Electron Energy =                -143.8355459386712596
    Two-Electron Energy =                  48.9307467252394517
    DFT Exchange-Correlation Energy =      -9.3883443449537332
    Empirical Dispersion Energy =           0.0000000000000000
    VV10 Nonlocal Energy =                  0.0000000000000000
    Total Energy =                        -92.1129766684120455

  UHF NO Occupations:
  HONO-2 :    1 B2 1.5217713
  HONO-1 :    1 B1 1.0000000
  HONO-0 :    5 A1 1.0000000
  LUNO+0 :    2 B2 0.4782287
  LUNO+1 :    6 A1 0.0089885
  LUNO+2 :    7 A1 0.0008121
  LUNO+3 :    8 A1 0.0000015

Computation Completed

Properties will be evaluated at   0.000000,   0.000000,   0.000000 [a0]

Properties computed using the B3LYP density matrix

 Multipole Moments:

 ------------------------------------------------------------------------------------
     Multipole            Electronic (a.u.)      Nuclear  (a.u.)        Total (a.u.)
 ------------------------------------------------------------------------------------

 L = 1.  Multiply by 2.5417464519 to convert [e a0] to [Debye]
 Dipole X            :          0.0000000            0.0000000            0.0000000
 Dipole Y            :          0.0000000            0.0000000            0.0000000
 Dipole Z            :          0.5578150            0.0024458            0.5602608
 Magnitude           :                                                    0.5602608

 L = 2.  Multiply by 1.3450342976 to convert [e a0^2] to [Debye ang]
 Quadrupole XX       :         -6.2120175            0.0000000           -6.2120175
 Quadrupole XY       :          0.0000000            0.0000000            0.0000000
 Quadrupole XZ       :          0.0000000            0.0000000            0.0000000
 Quadrupole YY       :         -7.3832086            0.0000000           -7.3832086
 Quadrupole YZ       :          0.0000000            0.0000000            0.0000000
 Quadrupole ZZ       :        -41.0741342           38.4147531           -2.6593811
 Traceless XX        :         12.0111026          -12.8049177           -0.7938151
 Traceless YY        :         10.8399115          -12.8049177           -1.9650062
 Traceless ZZ        :        -22.8510141           25.6098354            2.7588213

 ------------------------------------------------------------------------------------
  ==> Computing MBIS Charges <==

  Electron Count from Grid (Expected Number): 12.00000 (12.00000)
  Difference: -0.00000

  MBIS Charges: (a.u.)
   Center  Symbol  Z      Pop.       Charge
      1       N    7    6.659914    0.340086
      2       C    6    5.340085    0.659915

  MBIS Dipoles: [e a0]
   Center  Symbol  Z        X           Y           Z
      1       N    7   -0.000000    0.000000   -0.223077
      2       C    6    0.000000    0.000000    0.099104

  MBIS Quadrupoles: [e a0^2]
   Center  Symbol  Z      XX        XY        XZ        YY        YZ        ZZ
      1       N    7   -3.4149    0.0000   -0.0000   -3.6254   -0.0000   -3.5009
      2       C    6   -2.7971    0.0000    0.0000   -3.7578    0.0000   -3.3731

  MBIS Octupoles: [e a0^3]
   Center  Symbol  Z      XXX       XXY       XXZ       XYY       XYZ       XZZ       YYY       YYZ       YZZ       ZZZ
      1       N    7   -0.0000   -0.0000   -0.1452   -0.0000   -0.0000   -0.0000   -0.0000   -0.3060    0.0000   -0.8650
      2       C    6   -0.0000   -0.0000    0.1785    0.0000    0.0000    0.0000    0.0000    0.2157    0.0000    0.7289

  MBIS Radial Moments:
   Center  Symbol  Z      [a0^2]      [a0^3]      [a0^4]
      1       N    7   10.541249   21.088553   50.371123
      2       C    6    9.928065   22.135721   58.804520

  MBIS Valence Widths: [a0]
   Center  Symbol  Z     Width
      1       N    7    0.421953
      2       C    6    0.479817

*** tstop() called on Mac.lan at Sun Aug 10 18:35:15 2025
Module time:
	user time   =       4.49 seconds =       0.07 minutes
	system time =       2.34 seconds =       0.04 minutes
	total time  =          1 seconds =       0.02 minutes
Total time:
	user time   =      19.42 seconds =       0.32 minutes
	system time =       4.02 seconds =       0.07 minutes
	total time  =          2 seconds =       0.03 minutes

    Psi4 stopped on: Sunday, 10 August 2025 06:35PM
    Psi4 wall time for execution: 0:00:02.32

*** Psi4 exiting successfully. Buy a developer a beer!
