                               Psi4 1.9.1 release

  ==> Input File <==

--------------------------------------------------------------------------
molecule {
1 2
H           0.000000           0.000000           0.000000
H           0.000000           0.000000           0.688720
}

set {
basis              cc-pvtz
reference          uks
maxiter            500
DAMPING_PERCENTAGE 1
E_CONVERGENCE      1.0E-8
D_CONVERGENCE      1.0E-8
DIIS_MAX_VECS      400
MBIS_MAXITER       8000
guess              read
}

E, wfn = energy('b3lyp', restart_file='last_wfn', return_wfn=True)
properties('b3lyp','MBIS_CHARGES', wfn=wfn)
wfn.to_file('last_wfn')
--------------------------------------------------------------------------

    Molecular point group: d2h
  Charge       = 1
  Multiplicity = 2
  Basis Set: CC-PVTZ
    Blend: CC-PVTZ
  Basis Set: (CC-PVTZ AUX)
    Blend: CC-PVTZ-JKFIT
  @DF-UKS Final Energy:    -0.55392003974069
    Total Energy =                         -0.5539200397406885
 Dipole X            :          0.0000000            0.0000000            0.0000000
 Dipole Y            :          0.0000000            0.0000000            0.0000000
 Dipole Z            :          0.0000000            0.0000000            0.0000000
 Magnitude           :                                                    0.0000000
    Molecular point group: d2h

    Geometry (in Angstrom), charge = 1, multiplicity = 2:

       Center              X                  Y                   Z               Mass
    ------------   -----------------  -----------------  -----------------  -----------------
         H            0.000000000000     0.000000000000    -0.344360000000     1.007825032230
         H            0.000000000000     0.000000000000     0.344360000000     1.007825032230

  Charge       = 1
  Multiplicity = 2
  Basis Set: CC-PVTZ
    Blend: CC-PVTZ
  Basis Set: (CC-PVTZ AUX)
    Blend: CC-PVTZ-JKFIT

    Orbital Energies [Eh]
    ---------------------

    Alpha Occupied:

       1Ag    -1.088922

    Alpha Virtual:

       1B1u   -0.308081     2Ag    -0.128567     1B3u    0.037272
       1B2u    0.037272     2B1u    0.096816     3Ag     0.507484
       1B3g    0.537069     1B2g    0.537069     3B1u    1.020253
       4Ag     1.473519     4B1u    1.503528     1B1g    2.307169
       5Ag     2.307169     2B3u    2.457628     2B2u    2.457628
       6Ag     2.800513     2B2g    3.013628     2B3g    3.013628
       5B1u    3.301190     1Au     3.301190     3B2u    3.302527
       3B3u    3.302527     6B1u    3.968583     3B3g    5.000360
       3B2g    5.000360     7Ag     5.065611     7B1u    6.145669

    Beta Occupied:

    Beta Virtual:

       1Ag    -0.662234     1B1u   -0.182035     2Ag    -0.041567
       1B2u    0.183115     1B3u    0.183115     2B1u    0.231363
       3Ag     0.621360     1B3g    0.633613     1B2g    0.633613
       3B1u    1.092666     4Ag     1.766785     4B1u    1.770032
       5Ag     2.512954     1B1g    2.512954     2B3u    2.745414
       2B2u    2.745414     6Ag     3.050905     2B3g    3.220959
       2B2g    3.220959     5B1u    3.484692     1Au     3.484693
       3B2u    3.507314     3B3u    3.507314     6B1u    4.184223
       3B3g    5.244131     3B2g    5.244131     7Ag     5.340524
       7B1u    6.557759

    Final Occupation by Irrep:
             Ag   B1g   B2g   B3g    Au   B1u   B2u   B3u
    DOCC [     0,    0,    0,    0,    0,    0,    0,    0 ]
    SOCC [     1,    0,    0,    0,    0,    0,    0,    0 ]
    NA   [     1,    0,    0,    0,    0,    0,    0,    0 ]
    NB   [     0,    0,    0,    0,    0,    0,    0,    0 ]

  @DF-UKS Final Energy:    -0.55392003979508

   => Energetics <=

    Nuclear Repulsion Energy =              0.7683488364937857
    One-Electron Energy =                  -1.3203675795712710
    Two-Electron Energy =                   0.3205674682681971
    DFT Exchange-Correlation Energy =      -0.3224687649857905
    Empirical Dispersion Energy =           0.0000000000000000
    VV10 Nonlocal Energy =                  0.0000000000000000
    Total Energy =                         -0.5539200397950788

  UHF NO Occupations:
  HONO-0 :    1 Ag 1.0000000
  LUNO+0 :    2 Ag 0.0000000
  LUNO+1 :    3 Ag 0.0000000
  LUNO+2 :    3B3u 0.0000000
  LUNO+3 :    2B3u 0.0000000

Computation Completed

Properties will be evaluated at   0.000000,   0.000000,   0.000000 [a0]

Properties computed using the B3LYP density matrix

 Multipole Moments:

 ------------------------------------------------------------------------------------
     Multipole            Electronic (a.u.)      Nuclear  (a.u.)        Total (a.u.)
 ------------------------------------------------------------------------------------

 L = 1.  Multiply by 2.5417464519 to convert [e a0] to [Debye]
 Dipole X            :          0.0000000            0.0000000            0.0000000
 Dipole Y            :          0.0000000            0.0000000            0.0000000
 Dipole Z            :          0.0000000            0.0000000            0.0000000
 Magnitude           :                                                    0.0000000

 L = 2.  Multiply by 1.3450342976 to convert [e a0^2] to [Debye ang]
 Quadrupole XX       :         -0.4947075            0.0000000           -0.4947075
 Quadrupole XY       :          0.0000000            0.0000000            0.0000000
 Quadrupole XZ       :          0.0000000            0.0000000            0.0000000
 Quadrupole YY       :         -0.4947075            0.0000000           -0.4947075
 Quadrupole YZ       :          0.0000000            0.0000000            0.0000000
 Quadrupole ZZ       :         -0.6811768            0.8469409            0.1657641
 Traceless XX        :          0.0621564           -0.2823136           -0.2201572
 Traceless YY        :          0.0621564           -0.2823136           -0.2201572
 Traceless ZZ        :         -0.1243129            0.5646273            0.4403144

 ------------------------------------------------------------------------------------
  ==> Computing MBIS Charges <==

  Electron Count from Grid (Expected Number):  1.00000 ( 1.00000)
  Difference: -0.00000

  MBIS Charges: (a.u.)
   Center  Symbol  Z      Pop.       Charge
      1       H    1    0.500000    0.500000
      2       H    1    0.500000    0.500000

  MBIS Dipoles: [e a0]
   Center  Symbol  Z        X           Y           Z
      1       H    1    0.000000   -0.000000   -0.061925
      2       H    1    0.000000   -0.000000    0.061925

  MBIS Quadrupoles: [e a0^2]
   Center  Symbol  Z      XX        XY        XZ        YY        YZ        ZZ
      1       H    1   -0.2474   -0.0000   -0.0000   -0.2474   -0.0000   -0.2094
      2       H    1   -0.2474   -0.0000    0.0000   -0.2474   -0.0000   -0.2094

  MBIS Octupoles: [e a0^3]
   Center  Symbol  Z      XXX       XXY       XXZ       XYY       XYZ       XZZ       YYY       YYZ       YZZ       ZZZ
      1       H    1    0.0000    0.0000   -0.0314    0.0000   -0.0000    0.0000    0.0000   -0.0314    0.0000   -0.0551
      2       H    1    0.0000    0.0000    0.0314    0.0000    0.0000    0.0000    0.0000    0.0314   -0.0000    0.0551

  MBIS Radial Moments:
   Center  Symbol  Z      [a0^2]      [a0^3]      [a0^4]
      1       H    1    0.704156    1.174168    2.329425
      2       H    1    0.704156    1.174168    2.329425

  MBIS Valence Widths: [a0]
   Center  Symbol  Z     Width
      1       H    1    0.346856
      2       H    1    0.346856

*** tstop() called on Mac.lan at Sun Aug 10 18:11:32 2025
Module time:
	user time   =       0.54 seconds =       0.01 minutes
	system time =       1.34 seconds =       0.02 minutes
	total time  =          1 seconds =       0.02 minutes
Total time:
	user time   =       1.62 seconds =       0.03 minutes
	system time =       3.30 seconds =       0.06 minutes
	total time  =          1 seconds =       0.02 minutes

    Psi4 stopped on: Sunday, 10 August 2025 06:11PM
    Psi4 wall time for execution: 0:00:00.72

*** Psi4 exiting successfully. Buy a developer a beer!
