                               Psi4 1.9.1 release

  ==> Input File <==

--------------------------------------------------------------------------
molecule {
1 3
O           0.000000           0.000000           0.000000
H           0.000000           0.000000           1.099778
}

set {
basis              cc-pvtz
reference          uks
maxiter            500
DAMPING_PERCENTAGE 1
E_CONVERGENCE      1.0E-8
D_CONVERGENCE      1.0E-8
DIIS_MAX_VECS      400
MBIS_MAXITER       8000
guess              read
}

E, wfn = energy('b3lyp', restart_file='last_wfn', return_wfn=True)
properties('b3lyp','MBIS_CHARGES', wfn=wfn)
wfn.to_file('last_wfn')
--------------------------------------------------------------------------

    Molecular point group: c2v
  Charge       = 1
  Multiplicity = 3
  Basis Set: CC-PVTZ
    Blend: CC-PVTZ
  Basis Set: (CC-PVTZ AUX)
    Blend: CC-PVTZ-JKFIT
  @DF-UKS Final Energy:   -75.27923339496002
    Total Energy =                        -75.2792333949600163
 Dipole X            :          0.0000000            0.0000000            0.0000000
 Dipole Y            :          0.0000000            0.0000000            0.0000000
 Dipole Z            :         -0.0047163            0.9695828            0.9648665
 Magnitude           :                                                    0.9648665
    Molecular point group: c2v

    Geometry (in Angstrom), charge = 1, multiplicity = 3:

       Center              X                  Y                   Z               Mass
    ------------   -----------------  -----------------  -----------------  -----------------
         O            0.000000000000     0.000000000000    -0.065188541435    15.994914619570
         H            0.000000000000     0.000000000000     1.034589458565     1.007825032230

  Charge       = 1
  Multiplicity = 3
  Basis Set: CC-PVTZ
    Blend: CC-PVTZ
  Basis Set: (CC-PVTZ AUX)
    Blend: CC-PVTZ-JKFIT

    Orbital Energies [Eh]
    ---------------------

    Alpha Occupied:

       1A1   -19.811102     2A1    -1.544482     3A1    -0.960414
       1B2    -0.937801     1B1    -0.937801

    Alpha Virtual:

       4A1    -0.349047     5A1    -0.018677     2B2     0.132998
       2B1     0.132998     6A1     0.182081     3B2     0.323576
       3B1     0.323576     7A1     0.488458     8A1     0.762195
       1A2     0.932255     9A1     0.932255     4B2     1.230164
       4B1     1.230164    10A1     1.580937    11A1     1.916500
      12A1     2.749426     2A2     2.749427     5B2     2.777173
       5B1     2.777173    13A1     3.048207     6B2     3.178755
       6B1     3.178755     7B2     3.455027     7B1     3.455027
      14A1     3.556088    15A1     4.289624     8B1     4.512052
       8B2     4.512052     3A2     4.686698    16A1     4.686698
       9B1     5.413454     9B2     5.413454     4A2     5.535286
      17A1     5.535286    18A1     5.625334    10B1     5.942566
      10B2     5.942566    19A1     6.290546    20A1     8.559611

    Beta Occupied:

       1A1   -19.754624     2A1    -1.387962     3A1    -0.908466

    Beta Virtual:

       1B2    -0.635296     1B1    -0.635296     4A1    -0.333038
       5A1    -0.015412     2B2     0.196280     2B1     0.196280
       6A1     0.197528     3B2     0.339168     3B1     0.339168
       7A1     0.545632     8A1     0.774748     9A1     1.044187
       1A2     1.044187     4B2     1.284185     4B1     1.284185
      10A1     1.613609    11A1     1.913809    12A1     2.750888
       2A2     2.750889     5B2     2.845959     5B1     2.845959
      13A1     3.062390     6B2     3.220060     6B1     3.220060
       7B2     3.498974     7B1     3.498974    14A1     3.581432
      15A1     4.341252     8B1     4.664016     8B2     4.664016
       3A2     4.784236    16A1     4.784237     9B1     5.498592
       9B2     5.498592    17A1     5.677313     4A2     5.748748
      18A1     5.748749    10B1     6.032509    10B2     6.032509
      19A1     6.366407    20A1     8.633299

    Final Occupation by Irrep:
             A1    A2    B1    B2
    DOCC [     3,    0,    0,    0 ]
    SOCC [     0,    0,    1,    1 ]
    NA   [     3,    0,    1,    1 ]
    NB   [     3,    0,    0,    0 ]

  @DF-UKS Final Energy:   -75.27923339515505

   => Energetics <=

    Nuclear Repulsion Energy =              3.8493383986222685
    One-Electron Energy =                -107.0902391484067948
    Two-Electron Energy =                  34.8120727421257286
    DFT Exchange-Correlation Energy =      -6.8504053874962594
    Empirical Dispersion Energy =           0.0000000000000000
    VV10 Nonlocal Energy =                  0.0000000000000000
    Total Energy =                        -75.2792333951550745

  UHF NO Occupations:
  HONO-2 :    3 A1 1.9977848
  HONO-1 :    1 B1 1.0000000
  HONO-0 :    1 B2 1.0000000
  LUNO+0 :    4 A1 0.0022152
  LUNO+1 :    5 A1 0.0007416
  LUNO+2 :    6 A1 0.0000014
  LUNO+3 :    7 A1 0.0000000

Computation Completed

Properties will be evaluated at   0.000000,   0.000000,   0.000000 [a0]

Properties computed using the B3LYP density matrix

 Multipole Moments:

 ------------------------------------------------------------------------------------
     Multipole            Electronic (a.u.)      Nuclear  (a.u.)        Total (a.u.)
 ------------------------------------------------------------------------------------

 L = 1.  Multiply by 2.5417464519 to convert [e a0] to [Debye]
 Dipole X            :          0.0000000            0.0000000            0.0000000
 Dipole Y            :          0.0000000            0.0000000            0.0000000
 Dipole Z            :         -0.0047163            0.9695828            0.9648665
 Magnitude           :                                                    0.9648665

 L = 2.  Multiply by 1.3450342976 to convert [e a0^2] to [Debye ang]
 Quadrupole XX       :         -3.0780448            0.0000000           -3.0780448
 Quadrupole XY       :          0.0000000            0.0000000            0.0000000
 Quadrupole XZ       :          0.0000000            0.0000000            0.0000000
 Quadrupole YY       :         -3.0780448            0.0000000           -3.0780448
 Quadrupole YZ       :          0.0000000            0.0000000            0.0000000
 Quadrupole ZZ       :         -5.2021951            3.9437830           -1.2584121
 Traceless XX        :          0.7080501           -1.3145943           -0.6065442
 Traceless YY        :          0.7080501           -1.3145943           -0.6065442
 Traceless ZZ        :         -1.4161002            2.6291887            1.2130885

 ------------------------------------------------------------------------------------
  ==> Computing MBIS Charges <==

  Electron Count from Grid (Expected Number):  8.00000 ( 8.00000)
  Difference:  0.00000

  MBIS Charges: (a.u.)
   Center  Symbol  Z      Pop.       Charge
      1       O    8    7.532993    0.467007
      2       H    1    0.467007    0.532993

  MBIS Dipoles: [e a0]
   Center  Symbol  Z        X           Y           Z
      1       O    8   -0.000000   -0.000000   -0.076406
      2       H    1    0.000000    0.000000    0.056754

  MBIS Quadrupoles: [e a0^2]
   Center  Symbol  Z      XX        XY        XZ        YY        YZ        ZZ
      1       O    8   -2.8621   -0.0000   -0.0000   -2.8621   -0.0000   -3.3419
      2       H    1   -0.2160   -0.0000   -0.0000   -0.2160    0.0000   -0.2016

  MBIS Octupoles: [e a0^3]
   Center  Symbol  Z      XXX       XXY       XXZ       XYY       XYZ       XZZ       YYY       YYZ       YZZ       ZZZ
      1       O    8   -0.0000   -0.0000   -0.0514   -0.0000    0.0000   -0.0000   -0.0000   -0.0514   -0.0000   -0.2186
      2       H    1   -0.0000   -0.0000    0.0130   -0.0000   -0.0000   -0.0000    0.0000    0.0130    0.0000    0.0535

  MBIS Radial Moments:
   Center  Symbol  Z      [a0^2]      [a0^3]      [a0^4]
      1       O    8    9.066105   15.525250   31.801949
      2       H    1    0.633526    1.036255    2.022232

  MBIS Valence Widths: [a0]
   Center  Symbol  Z     Width
      1       O    8    0.359917
      2       H    1    0.341028

*** tstop() called on Mac.lan at Sun Aug 10 18:29:20 2025
Module time:
	user time   =       3.59 seconds =       0.06 minutes
	system time =       1.88 seconds =       0.03 minutes
	total time  =          0 seconds =       0.00 minutes
Total time:
	user time   =      13.58 seconds =       0.23 minutes
	system time =       3.35 seconds =       0.06 minutes
	total time  =          1 seconds =       0.02 minutes

    Psi4 stopped on: Sunday, 10 August 2025 06:29PM
    Psi4 wall time for execution: 0:00:01.68

*** Psi4 exiting successfully. Buy a developer a beer!
