                               Psi4 1.9.1 release

  ==> Input File <==

--------------------------------------------------------------------------
molecule {
1 1
O           0.000000           0.000000           0.000000
N           0.000000           0.000000           0.828546
}

set {
basis              cc-pvtz
reference          uks
maxiter            500
DAMPING_PERCENTAGE 1
E_CONVERGENCE      1.0E-8
D_CONVERGENCE      1.0E-8
DIIS_MAX_VECS      400
MBIS_MAXITER       8000
guess              read
}

E, wfn = energy('b3lyp', restart_file='last_wfn', return_wfn=True)
properties('b3lyp','MBIS_CHARGES', wfn=wfn)
wfn.to_file('last_wfn')
--------------------------------------------------------------------------

    Molecular point group: c2v
  Charge       = 1
  Multiplicity = 1
  Basis Set: CC-PVTZ
    Blend: CC-PVTZ
  Basis Set: (CC-PVTZ AUX)
    Blend: CC-PVTZ-JKFIT
  @DF-UKS Final Energy:  -129.28029884082773
    Total Energy =                       -129.2802988408277258
 Dipole X            :          0.0000000            0.0000000            0.0000000
 Dipole Y            :          0.0000000            0.0000000            0.0000000
 Dipole Z            :         -0.0358691           -0.0031416           -0.0390107
 Magnitude           :                                                    0.0390107
    Molecular point group: c2v

    Geometry (in Angstrom), charge = 1, multiplicity = 1:

       Center              X                  Y                   Z               Mass
    ------------   -----------------  -----------------  -----------------  -----------------
         O            0.000000000000     0.000000000000    -0.386765629506    15.994914619570
         N            0.000000000000     0.000000000000     0.441780370494    14.003074004430

  Charge       = 1
  Multiplicity = 1
  Basis Set: CC-PVTZ
    Blend: CC-PVTZ
  Basis Set: (CC-PVTZ AUX)
    Blend: CC-PVTZ-JKFIT

    Orbital Energies [Eh]
    ---------------------

    Alpha Occupied:

       1A1   -19.753088     2A1   -14.892069     3A1    -1.993893
       1B2    -1.144734     1B1    -1.144734     4A1    -1.081131
       5A1    -0.921695

    Alpha Virtual:

       2B2    -0.347050     2B1    -0.347050     6A1    -0.063128
       3B2     0.042190     3B1     0.042190     7A1     0.107910
       8A1     0.198618     4B1     0.302932     4B2     0.302932
       9A1     0.500179     1A2     0.500179    10A1     0.752560
      11A1     0.867578     5B2     0.936689     5B1     0.936689
      12A1     1.247394     2A2     1.247394    13A1     1.610728
       6B2     1.706451     6B1     1.706451    14A1     2.244735
       7B2     2.270698     7B1     2.270698    15A1     2.811202
       8B1     3.276043     8B2     3.276043    16A1     3.320500
       9B2     3.471677     9B1     3.471677    17A1     3.480844
       3A2     3.480844    10B1     3.782595    10B2     3.782595
      18A1     3.934893     4A2     3.934894    19A1     4.249957
      11B2     4.497718    11B1     4.497718    12B2     4.750555
      12B1     4.750555    20A1     5.480980    21A1     5.675226
       5A2     5.675226    22A1     5.974956     6A2     5.974956
      13B2     6.150519    13B1     6.150519    23A1     6.506712
      24A1     7.219659    14B2     7.889966    14B1     7.889966
      25A1     9.249582    26A1    22.675822

    Beta Occupied:

       1A1   -19.753088     2A1   -14.892069     3A1    -1.993893
       1B2    -1.144734     1B1    -1.144734     4A1    -1.081131
       5A1    -0.921695

    Beta Virtual:

       2B2    -0.347050     2B1    -0.347050     6A1    -0.063128
       3B2     0.042190     3B1     0.042190     7A1     0.107910
       8A1     0.198618     4B1     0.302932     4B2     0.302932
       9A1     0.500179     1A2     0.500179    10A1     0.752560
      11A1     0.867578     5B2     0.936689     5B1     0.936689
      12A1     1.247394     2A2     1.247394    13A1     1.610728
       6B2     1.706451     6B1     1.706451    14A1     2.244735
       7B2     2.270698     7B1     2.270698    15A1     2.811202
       8B1     3.276043     8B2     3.276043    16A1     3.320500
       9B2     3.471677     9B1     3.471677    17A1     3.480844
       3A2     3.480844    10B1     3.782595    10B2     3.782595
      18A1     3.934893     4A2     3.934894    19A1     4.249957
      11B2     4.497718    11B1     4.497718    12B2     4.750555
      12B1     4.750555    20A1     5.480980    21A1     5.675226
       5A2     5.675226    22A1     5.974956     6A2     5.974956
      13B2     6.150519    13B1     6.150519    23A1     6.506712
      24A1     7.219659    14B2     7.889966    14B1     7.889966
      25A1     9.249582    26A1    22.675822

    Final Occupation by Irrep:
             A1    A2    B1    B2
    DOCC [     5,    0,    1,    1 ]
    SOCC [     0,    0,    0,    0 ]
    NA   [     5,    0,    1,    1 ]
    NB   [     5,    0,    1,    1 ]

  @DF-UKS Final Energy:  -129.28029884090103

   => Energetics <=

    Nuclear Repulsion Energy =             35.7661780969553931
    One-Electron Energy =                -239.2761958583710111
    Two-Electron Energy =                  86.7006958940924619
    DFT Exchange-Correlation Energy =     -12.4709769735778675
    Empirical Dispersion Energy =           0.0000000000000000
    VV10 Nonlocal Energy =                  0.0000000000000000
    Total Energy =                       -129.2802988409010254

  UHF NO Occupations:
  HONO-2 :    4 A1 2.0000000
  HONO-1 :    1 B1 2.0000000
  HONO-0 :    5 A1 2.0000000
  LUNO+0 :    6 A1 0.0000000
  LUNO+1 :    7 A1 0.0000000
  LUNO+2 :    8 A1 0.0000000
  LUNO+3 :    9 A1 0.0000000

Computation Completed

Properties will be evaluated at   0.000000,   0.000000,   0.000000 [a0]

Properties computed using the B3LYP density matrix

 Multipole Moments:

 ------------------------------------------------------------------------------------
     Multipole            Electronic (a.u.)      Nuclear  (a.u.)        Total (a.u.)
 ------------------------------------------------------------------------------------

 L = 1.  Multiply by 2.5417464519 to convert [e a0] to [Debye]
 Dipole X            :          0.0000000            0.0000000            0.0000000
 Dipole Y            :          0.0000000            0.0000000            0.0000000
 Dipole Z            :         -0.0358691           -0.0031416           -0.0390107
 Magnitude           :                                                    0.0390107

 L = 2.  Multiply by 1.3450342976 to convert [e a0^2] to [Debye ang]
 Quadrupole XX       :         -5.3371080            0.0000000           -5.3371080
 Quadrupole XY       :          0.0000000            0.0000000            0.0000000
 Quadrupole XZ       :          0.0000000            0.0000000            0.0000000
 Quadrupole YY       :         -5.3371080            0.0000000           -5.3371080
 Quadrupole YZ       :          0.0000000            0.0000000            0.0000000
 Quadrupole ZZ       :        -14.8223646            9.1522481           -5.6701166
 Traceless XX        :          3.1617522           -3.0507494            0.1110029
 Traceless YY        :          3.1617522           -3.0507494            0.1110029
 Traceless ZZ        :         -6.3235044            6.1014987           -0.2220057

 ------------------------------------------------------------------------------------
  ==> Computing MBIS Charges <==

  Electron Count from Grid (Expected Number): 14.00000 (14.00000)
  Difference: -0.00000

  MBIS Charges: (a.u.)
   Center  Symbol  Z      Pop.       Charge
      1       O    8    7.532873    0.467127
      2       N    7    6.467126    0.532874

  MBIS Dipoles: [e a0]
   Center  Symbol  Z        X           Y           Z
      1       O    8   -0.000000    0.000000   -0.026940
      2       N    7   -0.000000   -0.000000   -0.115524

  MBIS Quadrupoles: [e a0^2]
   Center  Symbol  Z      XX        XY        XZ        YY        YZ        ZZ
      1       O    8   -2.6262   -0.0000   -0.0000   -2.6262    0.0000   -2.9341
      2       N    7   -2.7109   -0.0000   -0.0000   -2.7109    0.0000   -3.2034

  MBIS Octupoles: [e a0^3]
   Center  Symbol  Z      XXX       XXY       XXZ       XYY       XYZ       XZZ       YYY       YYZ       YZZ       ZZZ
      1       O    8    0.0000   -0.0000    0.0143    0.0000   -0.0000   -0.0000   -0.0000    0.0143   -0.0000    0.0621
      2       N    7    0.0000   -0.0000   -0.1143   -0.0000   -0.0000   -0.0000   -0.0000   -0.1143   -0.0000   -0.3658

  MBIS Radial Moments:
   Center  Symbol  Z      [a0^2]      [a0^3]      [a0^4]
      1       O    8    8.186478   13.304823   25.934772
      2       N    7    8.625273   15.857727   34.878548

  MBIS Valence Widths: [a0]
   Center  Symbol  Z     Width
      1       O    8    0.340063
      2       N    7    0.386155

*** tstop() called on Mac.lan at Sun Aug 10 18:40:54 2025
Module time:
	user time   =      13.64 seconds =       0.23 minutes
	system time =       3.52 seconds =       0.06 minutes
	total time  =          1 seconds =       0.02 minutes
Total time:
	user time   =      66.38 seconds =       1.11 minutes
	system time =       8.01 seconds =       0.13 minutes
	total time  =          7 seconds =       0.12 minutes

    Psi4 stopped on: Sunday, 10 August 2025 06:40PM
    Psi4 wall time for execution: 0:00:07.89

*** Psi4 exiting successfully. Buy a developer a beer!
