                               Psi4 1.9.1 release

  ==> Input File <==

--------------------------------------------------------------------------
molecule {
1 2
N           0.000000           0.000000           0.000000
N           0.000000           0.000000           0.967241
}

set {
basis              cc-pvtz
reference          uks
maxiter            500
DAMPING_PERCENTAGE 1
E_CONVERGENCE      1.0E-8
D_CONVERGENCE      1.0E-8
DIIS_MAX_VECS      400
MBIS_MAXITER       8000
guess              read
}

E, wfn = energy('b3lyp', restart_file='last_wfn', return_wfn=True)
properties('b3lyp','MBIS_CHARGES', wfn=wfn)
wfn.to_file('last_wfn')
--------------------------------------------------------------------------

    Molecular point group: d2h
  Charge       = 1
  Multiplicity = 2
  Basis Set: CC-PVTZ
    Blend: CC-PVTZ
  Basis Set: (CC-PVTZ AUX)
    Blend: CC-PVTZ-JKFIT
  @DF-UKS Final Energy:  -108.91898251379270
    Total Energy =                       -108.9189825137926988
 Dipole X            :          0.0000000            0.0000000            0.0000000
 Dipole Y            :          0.0000000            0.0000000            0.0000000
 Dipole Z            :          0.0000000           -0.0000000           -0.0000000
 Magnitude           :                                                    0.0000000
    Molecular point group: d2h

    Geometry (in Angstrom), charge = 1, multiplicity = 2:

       Center              X                  Y                   Z               Mass
    ------------   -----------------  -----------------  -----------------  -----------------
         N            0.000000000000     0.000000000000    -0.483620500000    14.003074004430
         N            0.000000000000     0.000000000000     0.483620500000    14.003074004430

  Charge       = 1
  Multiplicity = 2
  Basis Set: CC-PVTZ
    Blend: CC-PVTZ
  Basis Set: (CC-PVTZ AUX)
    Blend: CC-PVTZ-JKFIT

    Orbital Energies [Eh]
    ---------------------

    Alpha Occupied:

       1Ag   -14.892843     1B1u  -14.886874     2Ag    -1.667281
       2B1u   -0.987861     1B3u   -0.951493     1B2u   -0.951493
       3Ag    -0.921176

    Alpha Virtual:

       1B2g   -0.380705     1B3g   -0.380705     3B1u    0.018878
       2B2u    0.054986     2B3u    0.054986     4Ag     0.088537
       5Ag     0.128224     2B2g    0.233541     2B3g    0.233541
       4B1u    0.404676     6Ag     0.452463     1B1g    0.452463
       5B1u    0.664702     3B3u    0.776020     3B2u    0.776020
       6B1u    0.941290     1Au     0.941290     7Ag     1.260770
       3B2g    1.321467     3B3g    1.321467     7B1u    1.783969
       4B3u    2.285268     4B2u    2.285268     8Ag     2.576762
       4B2g    2.786871     4B3g    2.786871     8B1u    2.890744
       9Ag     3.083292     2B1g    3.083292     5B3u    3.118070
       5B2u    3.118070     6B3u    3.262271     6B2u    3.262271
      10Ag     3.599376     5B3g    3.771321     5B2g    3.771321
       6B2g    3.885241     6B3g    3.885241    11Ag     3.929675
       3B1g    3.929675     9B1u    4.041537     2Au     4.041537
      12Ag     4.472731    10B1u    4.490860     7B3u    4.724316
       7B2u    4.724316    11B1u    4.794400     3Au     4.794401
      12B1u    5.669338     7B2g    6.529087     7B3g    6.529087
      13Ag     7.001788    13B1u   20.413670

    Beta Occupied:

       1Ag   -14.879058     1B1u  -14.873563     2Ag    -1.637019
       1B3u   -0.937683     1B2u   -0.937683     2B1u   -0.892732

    Beta Virtual:

       3Ag    -0.741157     1B2g   -0.354998     1B3g   -0.354998
       3B1u    0.030401     2B2u    0.059355     2B3u    0.059355
       4Ag     0.104805     5Ag     0.157594     2B2g    0.240111
       2B3g    0.240111     4B1u    0.447131     6Ag     0.457471
       1B1g    0.457471     5B1u    0.683217     3B3u    0.808522
       3B2u    0.808522     6B1u    0.953494     1Au     0.953494
       7Ag     1.299940     3B2g    1.345127     3B3g    1.345127
       7B1u    1.826875     4B3u    2.295593     4B2u    2.295593
       8Ag     2.608822     4B2g    2.797012     4B3g    2.797012
       8B1u    2.937875     2B1g    3.095993     9Ag     3.095993
       5B3u    3.124242     5B2u    3.124242     6B3u    3.301406
       6B2u    3.301406    10Ag     3.679159     5B3g    3.780986
       5B2g    3.780986     6B2g    3.947145     6B3g    3.947145
      11Ag     3.953010     3B1g    3.953010     9B1u    4.064338
       2Au     4.064338    12Ag     4.512409    10B1u    4.542129
       7B3u    4.776098     7B2u    4.776098    11B1u    4.814402
       3Au     4.814402    12B1u    5.729751     7B2g    6.563867
       7B3g    6.563867    13Ag     7.030437    13B1u   20.433902

    Final Occupation by Irrep:
             Ag   B1g   B2g   B3g    Au   B1u   B2u   B3u
    DOCC [     2,    0,    0,    0,    0,    2,    1,    1 ]
    SOCC [     1,    0,    0,    0,    0,    0,    0,    0 ]
    NA   [     3,    0,    0,    0,    0,    2,    1,    1 ]
    NB   [     2,    0,    0,    0,    0,    2,    1,    1 ]

  @DF-UKS Final Energy:  -108.91898251383962

   => Energetics <=

    Nuclear Repulsion Energy =             26.8078827539672133
    One-Electron Energy =                -194.2000770964840797
    Two-Electron Energy =                  69.3685662510515613
    DFT Exchange-Correlation Energy =     -10.8953544223743233
    Empirical Dispersion Energy =           0.0000000000000000
    VV10 Nonlocal Energy =                  0.0000000000000000
    Total Energy =                       -108.9189825138396230

  UHF NO Occupations:
  HONO-2 :    2 Ag 1.9999122
  HONO-1 :    2B1u 1.9988796
  HONO-0 :    3 Ag 1.0000000
  LUNO+0 :    3B1u 0.0011204
  LUNO+1 :    4 Ag 0.0000878
  LUNO+2 :    2B3u 0.0000744
  LUNO+3 :    2B2u 0.0000744

Computation Completed

Properties will be evaluated at   0.000000,   0.000000,   0.000000 [a0]

Properties computed using the B3LYP density matrix

 Multipole Moments:

 ------------------------------------------------------------------------------------
     Multipole            Electronic (a.u.)      Nuclear  (a.u.)        Total (a.u.)
 ------------------------------------------------------------------------------------

 L = 1.  Multiply by 2.5417464519 to convert [e a0] to [Debye]
 Dipole X            :          0.0000000            0.0000000            0.0000000
 Dipole Y            :          0.0000000            0.0000000            0.0000000
 Dipole Z            :          0.0000000           -0.0000000           -0.0000000
 Magnitude           :                                                    0.0000000

 L = 2.  Multiply by 1.3450342976 to convert [e a0^2] to [Debye ang]
 Quadrupole XX       :         -5.8427113            0.0000000           -5.8427113
 Quadrupole XY       :          0.0000000            0.0000000            0.0000000
 Quadrupole XZ       :          0.0000000            0.0000000            0.0000000
 Quadrupole YY       :         -5.8427113            0.0000000           -5.8427113
 Quadrupole YZ       :          0.0000000            0.0000000            0.0000000
 Quadrupole ZZ       :        -16.4114963           11.6932483           -4.7182480
 Traceless XX        :          3.5229283           -3.8977494           -0.3748211
 Traceless YY        :          3.5229283           -3.8977494           -0.3748211
 Traceless ZZ        :         -7.0458567            7.7954989            0.7496422

 ------------------------------------------------------------------------------------
  ==> Computing MBIS Charges <==

  Electron Count from Grid (Expected Number): 13.00000 (13.00000)
  Difference: -0.00000

  MBIS Charges: (a.u.)
   Center  Symbol  Z      Pop.       Charge
      1       N    7    6.500000    0.500000
      2       N    7    6.500000    0.500000

  MBIS Dipoles: [e a0]
   Center  Symbol  Z        X           Y           Z
      1       N    7    0.000000    0.000000   -0.183822
      2       N    7    0.000000   -0.000000    0.183822

  MBIS Quadrupoles: [e a0^2]
   Center  Symbol  Z      XX        XY        XZ        YY        YZ        ZZ
      1       N    7   -2.9214    0.0000   -0.0000   -2.9214    0.0000   -3.1127
      2       N    7   -2.9214    0.0000    0.0000   -2.9214   -0.0000   -3.1127

  MBIS Octupoles: [e a0^3]
   Center  Symbol  Z      XXX       XXY       XXZ       XYY       XYZ       XZZ       YYY       YYZ       YZZ       ZZZ
      1       N    7    0.0000   -0.0000   -0.1189    0.0000   -0.0000    0.0000   -0.0000   -0.1189   -0.0000   -0.2218
      2       N    7    0.0000   -0.0000    0.1189    0.0000    0.0000    0.0000   -0.0000    0.1189   -0.0000    0.2218

  MBIS Radial Moments:
   Center  Symbol  Z      [a0^2]      [a0^3]      [a0^4]
      1       N    7    8.955444   16.610370   36.796370
      2       N    7    8.955444   16.610370   36.796370

  MBIS Valence Widths: [a0]
   Center  Symbol  Z     Width
      1       N    7    0.393581
      2       N    7    0.393581

*** tstop() called on Mac.lan at Sun Aug 10 18:24:21 2025
Module time:
	user time   =       3.70 seconds =       0.06 minutes
	system time =       2.59 seconds =       0.04 minutes
	total time  =          0 seconds =       0.00 minutes
Total time:
	user time   =      16.19 seconds =       0.27 minutes
	system time =       4.97 seconds =       0.08 minutes
	total time  =          2 seconds =       0.03 minutes

    Psi4 stopped on: Sunday, 10 August 2025 06:24PM
    Psi4 wall time for execution: 0:00:02.08

*** Psi4 exiting successfully. Buy a developer a beer!
