                               Psi4 1.9.1 release

  ==> Input File <==

--------------------------------------------------------------------------
molecule {
1 2
O           0.000000           0.000000           0.000000
C           0.000000           0.000000           1.420335
}

set {
basis              cc-pvtz
reference          uks
maxiter            500
DAMPING_PERCENTAGE 1
E_CONVERGENCE      1.0E-8
D_CONVERGENCE      1.0E-8
DIIS_MAX_VECS      400
MBIS_MAXITER       8000
guess              read
}

E, wfn = energy('b3lyp', restart_file='last_wfn', return_wfn=True)
properties('b3lyp','MBIS_CHARGES', wfn=wfn)
wfn.to_file('last_wfn')
--------------------------------------------------------------------------

    Molecular point group: c2v
  Charge       = 1
  Multiplicity = 2
  Basis Set: CC-PVTZ
    Blend: CC-PVTZ
  Basis Set: (CC-PVTZ AUX)
    Blend: CC-PVTZ-JKFIT
  @DF-UKS Final Energy:  -112.72342507410144
    Total Energy =                       -112.7234250741014563
 Dipole X            :          0.0000000            0.0000000            0.0000000
 Dipole Y            :          0.0000000            0.0000000            0.0000000
 Dipole Z            :          1.1871224           -0.0029254            1.1841970
 Magnitude           :                                                    1.1841970
    Molecular point group: c2v

    Geometry (in Angstrom), charge = 1, multiplicity = 2:

       Center              X                  Y                   Z               Mass
    ------------   -----------------  -----------------  -----------------  -----------------
         O            0.000000000000     0.000000000000    -0.608825575345    15.994914619570
         C            0.000000000000     0.000000000000     0.811509424655    12.000000000000

  Charge       = 1
  Multiplicity = 2
  Basis Set: CC-PVTZ
    Blend: CC-PVTZ
  Basis Set: (CC-PVTZ AUX)
    Blend: CC-PVTZ-JKFIT

    Orbital Energies [Eh]
    ---------------------

    Alpha Occupied:

       1A1   -19.670104     2A1   -10.853712     3A1    -1.425346
       4A1    -1.002343     5A1    -0.841515     1B1    -0.774372
       1B2    -0.774372

    Alpha Virtual:

       2B1    -0.517628     2B2    -0.517628     6A1    -0.251670
       7A1    -0.009796     8A1    -0.002086     3B1     0.003410
       3B2     0.003410     9A1     0.244507     1A2     0.296093
      10A1     0.296093     4B2     0.308311     4B1     0.308311
       5B1     0.421640     5B2     0.421640    11A1     0.673223
      12A1     0.872086    13A1     1.123163     2A2     1.123163
       6B1     1.315053     6B2     1.315053     7B1     1.594564
       7B2     1.594564    14A1     1.596670    15A1     1.760184
       8B1     2.231817     8B2     2.231817     3A2     2.283436
      16A1     2.283436     9B2     2.432001     9B1     2.432001
       4A2     2.466159    17A1     2.466161    18A1     2.536823
      10B1     2.688875    10B2     2.688875    19A1     2.745349
      20A1     3.347806    11B2     3.386784    11B1     3.386784
      12B1     4.717960    12B2     4.717960    21A1     4.780509
      22A1     4.817579     5A2     4.817581    13B1     5.178229
      13B2     5.178229    23A1     5.682009     6A2     5.798761
      24A1     5.798787    14B2     6.182891    14B1     6.182891
      25A1     6.800387    26A1     8.418367

    Beta Occupied:

       1A1   -19.666036     2A1   -10.834913     3A1    -1.408445
       4A1    -0.933975     1B1    -0.775414     1B2    -0.775414

    Beta Virtual:

       5A1    -0.660061     2B1    -0.484730     2B2    -0.484730
       6A1    -0.203867     7A1     0.000414     3B1     0.012449
       3B2     0.012449     8A1     0.041262     9A1     0.260360
       4B2     0.311033     4B1     0.311033     1A2     0.313388
      10A1     0.313388     5B1     0.449052     5B2     0.449052
      11A1     0.711826    12A1     0.881464    13A1     1.118958
       2A2     1.118958     6B1     1.340209     6B2     1.340209
       7B1     1.613620     7B2     1.613620    14A1     1.629807
      15A1     1.813944     8B1     2.259152     8B2     2.259152
       3A2     2.314336    16A1     2.314337     9B2     2.472552
       9B1     2.472552     4A2     2.509909    17A1     2.509911
      18A1     2.589961    10B1     2.752046    10B2     2.752046
      19A1     2.822289    11B2     3.387389    11B1     3.387389
      20A1     3.387907    12B1     4.704697    12B2     4.704697
      21A1     4.802609    22A1     4.825438     5A2     4.825439
      13B1     5.201744    13B2     5.201744    23A1     5.727791
       6A2     5.783384    24A1     5.783411    14B2     6.210132
      14B1     6.210132    25A1     6.834273    26A1     8.428751

    Final Occupation by Irrep:
             A1    A2    B1    B2
    DOCC [     4,    0,    1,    1 ]
    SOCC [     1,    0,    0,    0 ]
    NA   [     5,    0,    1,    1 ]
    NB   [     4,    0,    1,    1 ]

  @DF-UKS Final Energy:  -112.72342507376693

   => Energetics <=

    Nuclear Repulsion Energy =             17.8834613750699702
    One-Electron Energy =                -183.7389504551063055
    Two-Electron Energy =                  63.8784087541989365
    DFT Exchange-Correlation Energy =     -10.7463447479295446
    Empirical Dispersion Energy =           0.0000000000000000
    VV10 Nonlocal Energy =                  0.0000000000000000
    Total Energy =                       -112.7234250737669328

  UHF NO Occupations:
  HONO-2 :    1 B1 1.9934894
  HONO-1 :    1 B2 1.9934894
  HONO-0 :    5 A1 1.0000000
  LUNO+0 :    2 B2 0.0065106
  LUNO+1 :    2 B1 0.0065106
  LUNO+2 :    6 A1 0.0030070
  LUNO+3 :    7 A1 0.0000945

Computation Completed

Properties will be evaluated at   0.000000,   0.000000,   0.000000 [a0]

Properties computed using the B3LYP density matrix

 Multipole Moments:

 ------------------------------------------------------------------------------------
     Multipole            Electronic (a.u.)      Nuclear  (a.u.)        Total (a.u.)
 ------------------------------------------------------------------------------------

 L = 1.  Multiply by 2.5417464519 to convert [e a0] to [Debye]
 Dipole X            :          0.0000000            0.0000000            0.0000000
 Dipole Y            :          0.0000000            0.0000000            0.0000000
 Dipole Z            :          1.1871227           -0.0029254            1.1841973
 Magnitude           :                                                    1.1841973

 L = 2.  Multiply by 1.3450342976 to convert [e a0^2] to [Debye ang]
 Quadrupole XX       :         -6.4404619            0.0000000           -6.4404619
 Quadrupole XY       :          0.0000000            0.0000000            0.0000000
 Quadrupole XZ       :          0.0000000            0.0000000            0.0000000
 Quadrupole YY       :         -6.4404619            0.0000000           -6.4404619
 Quadrupole YZ       :          0.0000000            0.0000000            0.0000000
 Quadrupole ZZ       :        -27.6717326           24.6997482           -2.9719845
 Traceless XX        :          7.0770903           -8.2332494           -1.1561591
 Traceless YY        :          7.0770903           -8.2332494           -1.1561591
 Traceless ZZ        :        -14.1541805           16.4664988            2.3123183

 ------------------------------------------------------------------------------------
  ==> Computing MBIS Charges <==

  Electron Count from Grid (Expected Number): 13.00000 (13.00000)
  Difference: -0.00000

  MBIS Charges: (a.u.)
   Center  Symbol  Z      Pop.       Charge
      1       O    8    7.936603    0.063397
      2       C    6    5.063397    0.936603

  MBIS Dipoles: [e a0]
   Center  Symbol  Z        X           Y           Z
      1       O    8    0.000000   -0.000000   -0.341099
      2       C    6   -0.000000    0.000000    0.161924

  MBIS Quadrupoles: [e a0^2]
   Center  Symbol  Z      XX        XY        XZ        YY        YZ        ZZ
      1       O    8   -3.6272   -0.0000   -0.0000   -3.6272    0.0000   -3.5675
      2       C    6   -2.8133   -0.0000    0.0000   -2.8133    0.0000   -2.9726

  MBIS Octupoles: [e a0^3]
   Center  Symbol  Z      XXX       XXY       XXZ       XYY       XYZ       XZZ       YYY       YYZ       YZZ       ZZZ
      1       O    8   -0.0000    0.0000   -0.3246   -0.0000   -0.0000    0.0000   -0.0000   -0.3246    0.0000   -0.9469
      2       C    6   -0.0000    0.0000    0.3064   -0.0000    0.0000   -0.0000    0.0000    0.3064    0.0000    0.5687

  MBIS Radial Moments:
   Center  Symbol  Z      [a0^2]      [a0^3]      [a0^4]
      1       O    8   10.821806   19.776019   43.162361
      2       C    6    8.599155   18.457765   47.120673

  MBIS Valence Widths: [a0]
   Center  Symbol  Z     Width
      1       O    8    0.380661
      2       C    6    0.463975

*** tstop() called on Mac.lan at Sun Aug 10 18:38:24 2025
Module time:
	user time   =       3.31 seconds =       0.06 minutes
	system time =       2.26 seconds =       0.04 minutes
	total time  =          0 seconds =       0.00 minutes
Total time:
	user time   =      18.62 seconds =       0.31 minutes
	system time =       4.64 seconds =       0.08 minutes
	total time  =          2 seconds =       0.03 minutes

    Psi4 stopped on: Sunday, 10 August 2025 06:38PM
    Psi4 wall time for execution: 0:00:02.25

*** Psi4 exiting successfully. Buy a developer a beer!
