                               Psi4 1.9.1 release

  ==> Input File <==

--------------------------------------------------------------------------
molecule {
1 4
C           0.000000           0.000000           0.000000
C           0.000000           0.000000           1.111405
}

set {
basis              cc-pvtz
reference          uks
maxiter            500
DAMPING_PERCENTAGE 1
E_CONVERGENCE      1.0E-8
D_CONVERGENCE      1.0E-8
DIIS_MAX_VECS      400
MBIS_MAXITER       8000
guess              read
}

E, wfn = energy('b3lyp', restart_file='last_wfn', return_wfn=True)
properties('b3lyp','MBIS_CHARGES', wfn=wfn)
wfn.to_file('last_wfn')
--------------------------------------------------------------------------

    Molecular point group: d2h
  Charge       = 1
  Multiplicity = 4
  Basis Set: CC-PVTZ
    Blend: CC-PVTZ
  Basis Set: (CC-PVTZ AUX)
    Blend: CC-PVTZ-JKFIT
  @DF-UKS Final Energy:   -75.42954205265565
    Total Energy =                        -75.4295420526556342
 Dipole X            :          0.0000000            0.0000000            0.0000000
 Dipole Y            :          0.0000000            0.0000000            0.0000000
 Dipole Z            :          0.0000000           -0.0000000           -0.0000000
 Magnitude           :                                                    0.0000000
    Molecular point group: d2h

    Geometry (in Angstrom), charge = 1, multiplicity = 4:

       Center              X                  Y                   Z               Mass
    ------------   -----------------  -----------------  -----------------  -----------------
         C            0.000000000000     0.000000000000    -0.555702500000    12.000000000000
         C            0.000000000000     0.000000000000     0.555702500000    12.000000000000

  Charge       = 1
  Multiplicity = 4
  Basis Set: CC-PVTZ
    Blend: CC-PVTZ
  Basis Set: (CC-PVTZ AUX)
    Blend: CC-PVTZ-JKFIT

    Orbital Energies [Eh]
    ---------------------

    Alpha Occupied:

       1Ag   -10.672169     1B1u  -10.666673     2Ag    -1.251647
       2B1u   -0.819482     1B2u   -0.782354     3Ag    -0.755941
       1B3u   -0.741088

    Alpha Virtual:

       1B3g   -0.346009     1B2g   -0.316324     3B1u   -0.042284
       2B2u   -0.019598     2B3u   -0.007610     4Ag     0.010020
       5Ag     0.027074     2B3g    0.114793     2B2g    0.124805
       1B1g    0.223912     6Ag     0.224635     4B1u    0.247516
       5B1u    0.435360     3B2u    0.446058     3B3u    0.469040
       1Au     0.566729     6B1u    0.567293     7Ag     0.806157
       3B3g    0.824807     3B2g    0.838413     7B1u    1.231284
       4B2u    1.499328     4B3u    1.528453     8Ag     1.738002
       4B3g    1.880952     4B2g    1.909759     8B1u    1.968113
       2B1g    2.060252     9Ag     2.061454     5B2u    2.071845
       5B3u    2.072185     6B2u    2.142418     6B3u    2.175544
      10Ag     2.366837     5B3g    2.531124     5B2g    2.549308
       3B1g    2.551538    11Ag     2.551569     6B3g    2.560527
       6B2g    2.562377     9B1u    2.609834     2Au     2.610550
      10B1u    3.041778    12Ag     3.151672     7B2u    3.180811
       7B3u    3.207966     3Au     3.317172    11B1u    3.317503
      12B1u    3.911331     7B3g    4.507351     7B2g    4.538861
      13Ag     5.050284    13B1u   14.962724

    Beta Occupied:

       1Ag   -10.638641     1B1u  -10.633661     2Ag    -1.168343
       1B3u   -0.698895

    Beta Virtual:

       1B2u   -0.585747     2B1u   -0.563438     3Ag    -0.497958
       1B2g   -0.252865     1B3g   -0.218498     3B1u   -0.012837
       2B3u   -0.000695     2B2u    0.009778     4Ag     0.037658
       5Ag     0.094894     2B2g    0.140476     2B3g    0.156835
       1B1g    0.259340     6Ag     0.264001     4B1u    0.325459
       5B1u    0.497492     3B3u    0.522152     3B2u    0.537531
       1Au     0.604696     6B1u    0.611069     3B2g    0.872565
       7Ag     0.882167     3B3g    0.887590     7B1u    1.312651
       4B3u    1.551690     4B2u    1.566977     8Ag     1.801391
       4B2g    1.936110     4B3g    1.947849     8B1u    2.061178
       2B1g    2.110780     9Ag     2.117094     5B3u    2.124217
       5B2u    2.127351     6B3u    2.243508     6B2u    2.268599
      10Ag     2.524122     5B2g    2.618381     5B3g    2.622451
       3B1g    2.645705     6B2g    2.658394    11Ag     2.658473
       6B3g    2.694697     2Au     2.699940     9B1u    2.712026
      10B1u    3.180757    12Ag     3.241774     7B3u    3.297237
       7B2u    3.326206     3Au     3.384548    11B1u    3.395180
      12B1u    4.008243     7B2g    4.599099     7B3g    4.624707
      13Ag     5.115371    13B1u   15.021071

    Final Occupation by Irrep:
             Ag   B1g   B2g   B3g    Au   B1u   B2u   B3u
    DOCC [     2,    0,    0,    0,    0,    1,    0,    1 ]
    SOCC [     1,    0,    0,    0,    0,    1,    1,    0 ]
    NA   [     3,    0,    0,    0,    0,    2,    1,    1 ]
    NB   [     2,    0,    0,    0,    0,    1,    0,    1 ]

  @DF-UKS Final Energy:   -75.42954205223776

   => Energetics <=

    Nuclear Repulsion Energy =             17.1408078820232070
    One-Electron Energy =                -130.2138732392880058
    Two-Electron Energy =                  46.1062032093049865
    DFT Exchange-Correlation Energy =      -8.4626799042779446
    Empirical Dispersion Energy =           0.0000000000000000
    VV10 Nonlocal Energy =                  0.0000000000000000
    Total Energy =                        -75.4295420522377498

  UHF NO Occupations:
  HONO-2 :    2B1u 1.0000000
  HONO-1 :    1B2u 1.0000000
  HONO-0 :    3 Ag 1.0000000
  LUNO+0 :    2B3u 0.0006057
  LUNO+1 :    4 Ag 0.0004734
  LUNO+2 :    3B1u 0.0000010
  LUNO+3 :    5 Ag 0.0000006

Computation Completed

Properties will be evaluated at   0.000000,   0.000000,   0.000000 [a0]

Properties computed using the B3LYP density matrix

 Multipole Moments:

 ------------------------------------------------------------------------------------
     Multipole            Electronic (a.u.)      Nuclear  (a.u.)        Total (a.u.)
 ------------------------------------------------------------------------------------

 L = 1.  Multiply by 2.5417464519 to convert [e a0] to [Debye]
 Dipole X            :          0.0000000            0.0000000            0.0000000
 Dipole Y            :          0.0000000            0.0000000            0.0000000
 Dipole Z            :          0.0000000           -0.0000000           -0.0000000
 Magnitude           :                                                    0.0000000

 L = 2.  Multiply by 1.3450342976 to convert [e a0^2] to [Debye ang]
 Quadrupole XX       :         -6.7554794            0.0000000           -6.7554794
 Quadrupole XY       :          0.0000000            0.0000000            0.0000000
 Quadrupole XZ       :          0.0000000            0.0000000            0.0000000
 Quadrupole YY       :         -5.6350098            0.0000000           -5.6350098
 Quadrupole YZ       :          0.0000000            0.0000000            0.0000000
 Quadrupole ZZ       :        -17.2100137           13.2331636           -3.9768501
 Traceless XX        :          3.1113549           -4.4110545           -1.2996997
 Traceless YY        :          4.2318245           -4.4110545           -0.1792300
 Traceless ZZ        :         -7.3431794            8.8221091            1.4789297

 ------------------------------------------------------------------------------------
  ==> Computing MBIS Charges <==

  Electron Count from Grid (Expected Number): 11.00000 (11.00000)
  Difference: -0.00000

  MBIS Charges: (a.u.)
   Center  Symbol  Z      Pop.       Charge
      1       C    6    5.500000    0.500000
      2       C    6    5.500000    0.500000

  MBIS Dipoles: [e a0]
   Center  Symbol  Z        X           Y           Z
      1       C    6   -0.000000    0.000000   -0.346490
      2       C    6   -0.000000    0.000000    0.346490

  MBIS Quadrupoles: [e a0^2]
   Center  Symbol  Z      XX        XY        XZ        YY        YZ        ZZ
      1       C    6   -3.3777   -0.0000   -0.0000   -2.8175   -0.0000   -3.2675
      2       C    6   -3.3777   -0.0000    0.0000   -2.8175    0.0000   -3.2675

  MBIS Octupoles: [e a0^3]
   Center  Symbol  Z      XXX       XXY       XXZ       XYY       XYZ       XZZ       YYY       YYZ       YZZ       ZZZ
      1       C    6   -0.0000    0.0000   -0.3927   -0.0000   -0.0000   -0.0000    0.0000   -0.2240    0.0000   -0.5064
      2       C    6   -0.0000    0.0000    0.3927   -0.0000    0.0000   -0.0000    0.0000    0.2240    0.0000    0.5064

  MBIS Radial Moments:
   Center  Symbol  Z      [a0^2]      [a0^3]      [a0^4]
      1       C    6    9.462768   20.160213   51.323198
      2       C    6    9.462768   20.160213   51.323198

  MBIS Valence Widths: [a0]
   Center  Symbol  Z     Width
      1       C    6    0.455368
      2       C    6    0.455368

*** tstop() called on Mac.lan at Sun Aug 10 18:15:12 2025
Module time:
	user time   =       4.41 seconds =       0.07 minutes
	system time =       2.13 seconds =       0.04 minutes
	total time  =          0 seconds =       0.00 minutes
Total time:
	user time   =      16.34 seconds =       0.27 minutes
	system time =       3.66 seconds =       0.06 minutes
	total time  =          2 seconds =       0.03 minutes

    Psi4 stopped on: Sunday, 10 August 2025 06:15PM
    Psi4 wall time for execution: 0:00:01.96

*** Psi4 exiting successfully. Buy a developer a beer!
