                               Psi4 1.9.1 release

  ==> Input File <==

--------------------------------------------------------------------------
molecule {
1 1
O           0.000000           0.000000           0.000000
N           0.000000           0.000000           1.527632
}

set {
basis              cc-pvtz
reference          uks
maxiter            500
DAMPING_PERCENTAGE 1
E_CONVERGENCE      1.0E-8
D_CONVERGENCE      1.0E-8
DIIS_MAX_VECS      400
MBIS_MAXITER       8000
guess              read
}

E, wfn = energy('b3lyp', restart_file='last_wfn', return_wfn=True)
properties('b3lyp','MBIS_CHARGES', wfn=wfn)
wfn.to_file('last_wfn')
--------------------------------------------------------------------------

    Molecular point group: c2v
  Charge       = 1
  Multiplicity = 1
  Basis Set: CC-PVTZ
    Blend: CC-PVTZ
  Basis Set: (CC-PVTZ AUX)
    Blend: CC-PVTZ-JKFIT
  @DF-UKS Final Energy:  -129.34468510424983
    Total Energy =                       -129.3446851042498338
 Dipole X            :          0.0000000            0.0000000            0.0000000
 Dipole Y            :          0.0000000            0.0000000            0.0000000
 Dipole Z            :          0.5414071           -0.0057923            0.5356149
 Magnitude           :                                                    0.5356149
    Molecular point group: c2v

    Geometry (in Angstrom), charge = 1, multiplicity = 1:

       Center              X                  Y                   Z               Mass
    ------------   -----------------  -----------------  -----------------  -----------------
         O            0.000000000000     0.000000000000    -0.713099275277    15.994914619570
         N            0.000000000000     0.000000000000     0.814532724723    14.003074004430

  Charge       = 1
  Multiplicity = 1
  Basis Set: CC-PVTZ
    Blend: CC-PVTZ
  Basis Set: (CC-PVTZ AUX)
    Blend: CC-PVTZ-JKFIT

    Orbital Energies [Eh]
    ---------------------

    Alpha Occupied:

       1A1   -19.746834     2A1   -15.021760     3A1    -1.458135
       4A1    -1.160081     5A1    -0.861295     1B2    -0.814324
       1B1    -0.814324

    Alpha Virtual:

       2B2    -0.615972     2B1    -0.615972     6A1    -0.423296
       7A1     0.098137     3B1     0.112257     3B2     0.112257
       8A1     0.163042     9A1     0.259775     4B2     0.284005
       4B1     0.284005     1A2     0.596892    10A1     0.596892
       5B2     0.612784     5B1     0.612784    11A1     0.746759
      12A1     1.086589    13A1     1.087455     2A2     1.087455
       6B2     1.409406     6B1     1.409406    14A1     1.624218
       7B2     2.330278     7B1     2.330278    15A1     2.579638
       8B1     3.047802     8B2     3.047802    16A1     3.170245
      17A1     3.369969     3A2     3.369970     9B2     3.390191
       9B1     3.390191    10B1     3.503991    10B2     3.503991
      18A1     3.796405    19A1     3.890137     4A2     3.890144
      11B1     4.053638    11B2     4.053638    20A1     4.545398
      12B2     4.653817    12B1     4.653817    21A1     4.680454
      22A1     4.719840     5A2     4.719841    13B1     5.097085
      13B2     5.097085    23A1     5.609813     6A2     5.698423
      24A1     5.698465    14B2     6.035913    14B1     6.035913
      25A1     6.874461    26A1     7.683980

    Beta Occupied:

       1A1   -19.746834     2A1   -15.021760     3A1    -1.458135
       4A1    -1.160081     5A1    -0.861295     1B2    -0.814324
       1B1    -0.814324

    Beta Virtual:

       2B1    -0.615972     2B2    -0.615972     6A1    -0.423296
       7A1     0.098137     3B1     0.112257     3B2     0.112257
       8A1     0.163042     9A1     0.259775     4B2     0.284005
       4B1     0.284005     1A2     0.596892    10A1     0.596892
       5B2     0.612784     5B1     0.612784    11A1     0.746759
      12A1     1.086589    13A1     1.087455     2A2     1.087455
       6B2     1.409406     6B1     1.409406    14A1     1.624218
       7B1     2.330278     7B2     2.330278    15A1     2.579638
       8B1     3.047802     8B2     3.047802    16A1     3.170245
      17A1     3.369969     3A2     3.369970     9B2     3.390191
       9B1     3.390191    10B1     3.503991    10B2     3.503991
      18A1     3.796405    19A1     3.890137     4A2     3.890144
      11B1     4.053638    11B2     4.053638    20A1     4.545398
      12B2     4.653817    12B1     4.653817    21A1     4.680454
      22A1     4.719840     5A2     4.719841    13B1     5.097085
      13B2     5.097085    23A1     5.609813     6A2     5.698423
      24A1     5.698465    14B2     6.035913    14B1     6.035913
      25A1     6.874461    26A1     7.683980

    Final Occupation by Irrep:
             A1    A2    B1    B2
    DOCC [     5,    0,    1,    1 ]
    SOCC [     0,    0,    0,    0 ]
    NA   [     5,    0,    1,    1 ]
    NB   [     5,    0,    1,    1 ]

  @DF-UKS Final Energy:  -129.34468509004046

   => Energetics <=

    Nuclear Repulsion Energy =             19.3986011012599917
    One-Electron Energy =                -209.2106491731518361
    Two-Electron Energy =                  72.3032280873850084
    DFT Exchange-Correlation Energy =     -11.8358651055336388
    Empirical Dispersion Energy =           0.0000000000000000
    VV10 Nonlocal Energy =                  0.0000000000000000
    Total Energy =                       -129.3446850900404570

  UHF NO Occupations:
  HONO-2 :    4 A1 2.0000000
  HONO-1 :    5 A1 2.0000000
  HONO-0 :    1 B1 2.0000000
  LUNO+0 :    2 B1 0.0000000
  LUNO+1 :    2 B2 0.0000000
  LUNO+2 :    6 A1 0.0000000
  LUNO+3 :    7 A1 0.0000000

Computation Completed

Properties will be evaluated at   0.000000,   0.000000,   0.000000 [a0]

Properties computed using the B3LYP density matrix

 Multipole Moments:

 ------------------------------------------------------------------------------------
     Multipole            Electronic (a.u.)      Nuclear  (a.u.)        Total (a.u.)
 ------------------------------------------------------------------------------------

 L = 1.  Multiply by 2.5417464519 to convert [e a0] to [Debye]
 Dipole X            :          0.0000000            0.0000000            0.0000000
 Dipole Y            :          0.0000000            0.0000000            0.0000000
 Dipole Z            :          0.5414077           -0.0057923            0.5356155
 Magnitude           :                                                    0.5356155

 L = 2.  Multiply by 1.3450342976 to convert [e a0^2] to [Debye ang]
 Quadrupole XX       :         -6.3899172            0.0000000           -6.3899172
 Quadrupole XY       :          0.0000000            0.0000000            0.0000000
 Quadrupole XZ       :          0.0000000            0.0000000            0.0000000
 Quadrupole YY       :         -6.3899172            0.0000000           -6.3899172
 Quadrupole YZ       :          0.0000000            0.0000000            0.0000000
 Quadrupole ZZ       :        -34.9483324           31.1122936           -3.8360388
 Traceless XX        :          9.5194717          -10.3707645           -0.8512928
 Traceless YY        :          9.5194717          -10.3707645           -0.8512928
 Traceless ZZ        :        -19.0389435           20.7415290            1.7025856

 ------------------------------------------------------------------------------------
  ==> Computing MBIS Charges <==

  Electron Count from Grid (Expected Number): 14.00000 (14.00000)
  Difference: -0.00000

  MBIS Charges: (a.u.)
   Center  Symbol  Z      Pop.       Charge
      1       O    8    7.702182    0.297818
      2       N    7    6.297817    0.702183

  MBIS Dipoles: [e a0]
   Center  Symbol  Z        X           Y           Z
      1       O    8   -0.000000    0.000000   -0.200036
      2       N    7   -0.000000   -0.000000    0.056148

  MBIS Quadrupoles: [e a0^2]
   Center  Symbol  Z      XX        XY        XZ        YY        YZ        ZZ
      1       O    8   -3.3506    0.0000    0.0000   -3.3506   -0.0000   -3.4231
      2       N    7   -3.0393   -0.0000    0.0000   -3.0393   -0.0000   -3.3294

  MBIS Octupoles: [e a0^3]
   Center  Symbol  Z      XXX       XXY       XXZ       XYY       XYZ       XZZ       YYY       YYZ       YZZ       ZZZ
      1       O    8   -0.0000   -0.0000   -0.2088   -0.0000    0.0000   -0.0000   -0.0000   -0.2088   -0.0000   -0.6240
      2       N    7    0.0000   -0.0000    0.1979    0.0000   -0.0000    0.0000   -0.0000    0.1979   -0.0000    0.4442

  MBIS Radial Moments:
   Center  Symbol  Z      [a0^2]      [a0^3]      [a0^4]
      1       O    8   10.124332   18.260939   39.437046
      2       N    7    9.407989   18.380719   42.882939

  MBIS Valence Widths: [a0]
   Center  Symbol  Z     Width
      1       O    8    0.374949
      2       N    7    0.414050

*** tstop() called on Mac.lan at Sun Aug 10 18:42:55 2025
Module time:
	user time   =       4.04 seconds =       0.07 minutes
	system time =       1.78 seconds =       0.03 minutes
	total time  =          1 seconds =       0.02 minutes
Total time:
	user time   =      17.20 seconds =       0.29 minutes
	system time =       4.02 seconds =       0.07 minutes
	total time  =          2 seconds =       0.03 minutes

    Psi4 stopped on: Sunday, 10 August 2025 06:42PM
    Psi4 wall time for execution: 0:00:02.07

*** Psi4 exiting successfully. Buy a developer a beer!
