                               Psi4 1.9.1 release

  ==> Input File <==

--------------------------------------------------------------------------
molecule {
1 1
O           0.000000           0.000000           0.000000
N           0.000000           0.000000           1.158670
}

set {
basis              cc-pvtz
reference          uks
maxiter            500
DAMPING_PERCENTAGE 1
E_CONVERGENCE      1.0E-8
D_CONVERGENCE      1.0E-8
DIIS_MAX_VECS      400
MBIS_MAXITER       8000
guess              read
}

E, wfn = energy('b3lyp', restart_file='last_wfn', return_wfn=True)
properties('b3lyp','MBIS_CHARGES', wfn=wfn)
wfn.to_file('last_wfn')
--------------------------------------------------------------------------

    Molecular point group: c2v
  Charge       = 1
  Multiplicity = 1
  Basis Set: CC-PVTZ
    Blend: CC-PVTZ
  Basis Set: (CC-PVTZ AUX)
    Blend: CC-PVTZ-JKFIT
  @DF-UKS Final Energy:  -129.56167422045823
    Total Energy =                       -129.5616742204582295
 Dipole X            :          0.0000000            0.0000000            0.0000000
 Dipole Y            :          0.0000000            0.0000000            0.0000000
 Dipole Z            :          0.2480641           -0.0043933            0.2436708
 Magnitude           :                                                    0.2436708
    Molecular point group: c2v

    Geometry (in Angstrom), charge = 1, multiplicity = 1:

       Center              X                  Y                   Z               Mass
    ------------   -----------------  -----------------  -----------------  -----------------
         O            0.000000000000     0.000000000000    -0.540867654831    15.994914619570
         N            0.000000000000     0.000000000000     0.617802345169    14.003074004430

  Charge       = 1
  Multiplicity = 1
  Basis Set: CC-PVTZ
    Blend: CC-PVTZ
  Basis Set: (CC-PVTZ AUX)
    Blend: CC-PVTZ-JKFIT

    Orbital Energies [Eh]
    ---------------------

    Alpha Occupied:

       1A1   -19.769825     2A1   -14.984513     3A1    -1.696013
       4A1    -1.109403     1B2    -0.939766     1B1    -0.939766
       5A1    -0.912479

    Alpha Virtual:

       2B2    -0.534696     2B1    -0.534696     6A1    -0.095306
       7A1     0.091618     3B1     0.093119     3B2     0.093119
       8A1     0.147663     9A1     0.222877     4B2     0.281951
       4B1     0.281951     1A2     0.542863    10A1     0.542863
       5B2     0.727902     5B1     0.727902    11A1     0.831351
       2A2     1.133265    12A1     1.133265    13A1     1.240847
       6B1     1.612644     6B2     1.612644    14A1     1.816518
       7B2     2.388401     7B1     2.388401    15A1     2.618387
       8B1     3.094430     8B2     3.094430     3A2     3.326210
      16A1     3.326210     9B2     3.360313     9B1     3.360313
      17A1     3.479911    10B2     3.603445    10B1     3.603445
      18A1     3.807493     4A2     3.918614    19A1     3.918617
      11B1     4.291674    11B2     4.291674    20A1     4.324263
      12B1     4.623751    12B2     4.623751     5A2     5.085465
      21A1     5.085466    22A1     5.711280     6A2     5.711293
      23A1     5.777585    13B2     5.915372    13B1     5.915372
      14B1     6.459910    14B2     6.459910    24A1     6.471707
      25A1     6.700062    26A1    12.605537

    Beta Occupied:

       1A1   -19.769825     2A1   -14.984513     3A1    -1.696013
       4A1    -1.109403     1B2    -0.939766     1B1    -0.939766
       5A1    -0.912479

    Beta Virtual:

       2B2    -0.534696     2B1    -0.534696     6A1    -0.095306
       7A1     0.091618     3B1     0.093119     3B2     0.093119
       8A1     0.147663     9A1     0.222877     4B2     0.281951
       4B1     0.281951     1A2     0.542863    10A1     0.542863
       5B2     0.727902     5B1     0.727902    11A1     0.831351
       2A2     1.133265    12A1     1.133265    13A1     1.240847
       6B1     1.612644     6B2     1.612644    14A1     1.816518
       7B2     2.388401     7B1     2.388401    15A1     2.618387
       8B1     3.094430     8B2     3.094430     3A2     3.326210
      16A1     3.326210     9B2     3.360313     9B1     3.360313
      17A1     3.479911    10B2     3.603445    10B1     3.603445
      18A1     3.807493     4A2     3.918614    19A1     3.918617
      11B1     4.291674    11B2     4.291674    20A1     4.324263
      12B1     4.623751    12B2     4.623751     5A2     5.085465
      21A1     5.085466    22A1     5.711280     6A2     5.711293
      23A1     5.777585    13B2     5.915372    13B1     5.915372
      14B1     6.459910    14B2     6.459910    24A1     6.471707
      25A1     6.700062    26A1    12.605537

    Final Occupation by Irrep:
             A1    A2    B1    B2
    DOCC [     5,    0,    1,    1 ]
    SOCC [     0,    0,    0,    0 ]
    NA   [     5,    0,    1,    1 ]
    NB   [     5,    0,    1,    1 ]

  @DF-UKS Final Energy:  -129.56167421865365

   => Energetics <=

    Nuclear Repulsion Energy =             25.5758100214211126
    One-Electron Energy =                -220.9193982892855672
    Two-Electron Energy =                  77.8117168094581615
    DFT Exchange-Correlation Energy =     -12.0298027602473692
    Empirical Dispersion Energy =           0.0000000000000000
    VV10 Nonlocal Energy =                  0.0000000000000000
    Total Energy =                       -129.5616742186536499

  UHF NO Occupations:
  HONO-2 :    4 A1 2.0000000
  HONO-1 :    1 B2 2.0000000
  HONO-0 :    5 A1 2.0000000
  LUNO+0 :    6 A1 0.0000000
  LUNO+1 :    7 A1 0.0000000
  LUNO+2 :    8 A1 0.0000000
  LUNO+3 :    9 A1 0.0000000

Computation Completed

Properties will be evaluated at   0.000000,   0.000000,   0.000000 [a0]

Properties computed using the B3LYP density matrix

 Multipole Moments:

 ------------------------------------------------------------------------------------
     Multipole            Electronic (a.u.)      Nuclear  (a.u.)        Total (a.u.)
 ------------------------------------------------------------------------------------

 L = 1.  Multiply by 2.5417464519 to convert [e a0] to [Debye]
 Dipole X            :          0.0000000            0.0000000            0.0000000
 Dipole Y            :          0.0000000            0.0000000            0.0000000
 Dipole Z            :          0.2480642           -0.0043933            0.2436709
 Magnitude           :                                                    0.2436709

 L = 2.  Multiply by 1.3450342976 to convert [e a0^2] to [Debye ang]
 Quadrupole XX       :         -5.9750524            0.0000000           -5.9750524
 Quadrupole XY       :          0.0000000            0.0000000            0.0000000
 Quadrupole XZ       :          0.0000000            0.0000000            0.0000000
 Quadrupole YY       :         -5.9750524            0.0000000           -5.9750524
 Quadrupole YZ       :          0.0000000            0.0000000            0.0000000
 Quadrupole ZZ       :        -23.0671609           17.8983938           -5.1687672
 Traceless XX        :          5.6973695           -5.9661313           -0.2687618
 Traceless YY        :          5.6973695           -5.9661313           -0.2687618
 Traceless ZZ        :        -11.3947390           11.9322625            0.5375235

 ------------------------------------------------------------------------------------
  ==> Computing MBIS Charges <==

  Electron Count from Grid (Expected Number): 14.00000 (14.00000)
  Difference:  0.00000

  MBIS Charges: (a.u.)
   Center  Symbol  Z      Pop.       Charge
      1       O    8    7.654067    0.345933
      2       N    7    6.345934    0.654066

  MBIS Dipoles: [e a0]
   Center  Symbol  Z        X           Y           Z
      1       O    8   -0.000000   -0.000000   -0.114715
      2       N    7   -0.000000   -0.000000   -0.051647

  MBIS Quadrupoles: [e a0^2]
   Center  Symbol  Z      XX        XY        XZ        YY        YZ        ZZ
      1       O    8   -3.0681   -0.0000   -0.0000   -3.0681   -0.0000   -3.2494
      2       N    7   -2.9070   -0.0000    0.0000   -2.9070    0.0000   -3.2861

  MBIS Octupoles: [e a0^3]
   Center  Symbol  Z      XXX       XXY       XXZ       XYY       XYZ       XZZ       YYY       YYZ       YZZ       ZZZ
      1       O    8   -0.0000   -0.0000   -0.0946    0.0000   -0.0000   -0.0000   -0.0000   -0.0946    0.0000   -0.2790
      2       N    7   -0.0000    0.0000    0.0492   -0.0000    0.0000    0.0000   -0.0000    0.0492    0.0000    0.0624

  MBIS Radial Moments:
   Center  Symbol  Z      [a0^2]      [a0^3]      [a0^4]
      1       O    8    9.385582   16.208750   33.516131
      2       N    7    9.100076   17.298443   39.207952

  MBIS Valence Widths: [a0]
   Center  Symbol  Z     Width
      1       O    8    0.362338
      2       N    7    0.404533

*** tstop() called on Mac.lan at Sun Aug 10 18:42:03 2025
Module time:
	user time   =       3.94 seconds =       0.07 minutes
	system time =       1.85 seconds =       0.03 minutes
	total time  =          0 seconds =       0.00 minutes
Total time:
	user time   =      16.44 seconds =       0.27 minutes
	system time =       4.18 seconds =       0.07 minutes
	total time  =          2 seconds =       0.03 minutes

    Psi4 stopped on: Sunday, 10 August 2025 06:42PM
    Psi4 wall time for execution: 0:00:02.00

*** Psi4 exiting successfully. Buy a developer a beer!
