                               Psi4 1.9.1 release

  ==> Input File <==

--------------------------------------------------------------------------
molecule {
1 3
O           0.000000           0.000000           0.000000
H           0.000000           0.000000           0.813708
}

set {
basis              cc-pvtz
reference          uks
maxiter            500
DAMPING_PERCENTAGE 1
E_CONVERGENCE      1.0E-8
D_CONVERGENCE      1.0E-8
DIIS_MAX_VECS      400
MBIS_MAXITER       8000
guess              read
}

E, wfn = energy('b3lyp', restart_file='last_wfn', return_wfn=True)
properties('b3lyp','MBIS_CHARGES', wfn=wfn)
wfn.to_file('last_wfn')
--------------------------------------------------------------------------

    Molecular point group: c2v
  Charge       = 1
  Multiplicity = 3
  Basis Set: CC-PVTZ
    Blend: CC-PVTZ
  Basis Set: (CC-PVTZ AUX)
    Blend: CC-PVTZ-JKFIT
  @DF-UKS Final Energy:   -75.22866852506938
    Total Energy =                        -75.2286685250693807
 Dipole X            :          0.0000000            0.0000000            0.0000000
 Dipole Y            :          0.0000000            0.0000000            0.0000000
 Dipole Z            :         -0.0060412            0.7173787            0.7113375
 Magnitude           :                                                    0.7113375
    Molecular point group: c2v

    Geometry (in Angstrom), charge = 1, multiplicity = 3:

       Center              X                  Y                   Z               Mass
    ------------   -----------------  -----------------  -----------------  -----------------
         O            0.000000000000     0.000000000000    -0.048231950152    15.994914619570
         H            0.000000000000     0.000000000000     0.765476049848     1.007825032230

  Charge       = 1
  Multiplicity = 3
  Basis Set: CC-PVTZ
    Blend: CC-PVTZ
  Basis Set: (CC-PVTZ AUX)
    Blend: CC-PVTZ-JKFIT

    Orbital Energies [Eh]
    ---------------------

    Alpha Occupied:

       1A1   -19.834593     2A1    -1.655995     3A1    -1.043116
       1B1    -0.980920     1B2    -0.980920

    Alpha Virtual:

       4A1    -0.253187     5A1     0.079870     2B2     0.133812
       2B1     0.133812     6A1     0.144089     3B2     0.332093
       3B1     0.332093     7A1     0.431593     1A2     0.900729
       8A1     0.900729     9A1     1.040187     4B1     1.342826
       4B2     1.342826    10A1     1.403297    11A1     2.092606
       2A2     2.794470    12A1     2.794470     5B1     2.873153
       5B2     2.873153     6B1     3.106101     6B2     3.106101
      13A1     3.383648     7B2     3.743987     7B1     3.743987
      14A1     3.973705     8B2     4.472710     8B1     4.472710
      15A1     4.573175     3A2     5.003364    16A1     5.003364
      17A1     5.497923     4A2     5.497923     9B1     5.734403
       9B2     5.734403    18A1     6.319946    10B1     6.683008
      10B2     6.683008    19A1     6.748696    20A1    11.265314

    Beta Occupied:

       1A1   -19.778705     2A1    -1.512818     3A1    -0.980329

    Beta Virtual:

       1B1    -0.676175     1B2    -0.676175     4A1    -0.239898
       5A1     0.096699     6A1     0.155619     2B2     0.202604
       2B1     0.202604     3B2     0.350232     3B1     0.350232
       7A1     0.474691     8A1     1.012976     1A2     1.012976
       9A1     1.070849     4B1     1.394981     4B2     1.394981
      10A1     1.437748    11A1     2.109024     2A2     2.818166
      12A1     2.818166     5B2     2.951369     5B1     2.951369
       6B1     3.177943     6B2     3.177943    13A1     3.399431
       7B2     3.779908     7B1     3.779908    14A1     4.035210
       8B2     4.625246     8B1     4.625246    15A1     4.639191
      16A1     5.100046     3A2     5.100046    17A1     5.708649
       4A2     5.708650     9B1     5.830735     9B2     5.830735
      18A1     6.369479    10B1     6.750984    10B2     6.750984
      19A1     6.792058    20A1    11.330443

    Final Occupation by Irrep:
             A1    A2    B1    B2
    DOCC [     3,    0,    0,    0 ]
    SOCC [     0,    0,    1,    1 ]
    NA   [     3,    0,    1,    1 ]
    NB   [     3,    0,    0,    0 ]

  @DF-UKS Final Energy:   -75.22866852539767

   => Energetics <=

    Nuclear Repulsion Energy =              5.2026251251800408
    One-Electron Energy =                -109.1044113244614095
    Two-Electron Energy =                  35.6191414643140547
    DFT Exchange-Correlation Energy =      -6.9460237904303304
    Empirical Dispersion Energy =           0.0000000000000000
    VV10 Nonlocal Energy =                  0.0000000000000000
    Total Energy =                        -75.2286685253976515

  UHF NO Occupations:
  HONO-2 :    3 A1 1.9986323
  HONO-1 :    1 B1 1.0000000
  HONO-0 :    1 B2 1.0000000
  LUNO+0 :    4 A1 0.0013677
  LUNO+1 :    5 A1 0.0003659
  LUNO+2 :    6 A1 0.0000015
  LUNO+3 :    7 A1 0.0000000

Computation Completed

Properties will be evaluated at   0.000000,   0.000000,   0.000000 [a0]

Properties computed using the B3LYP density matrix

 Multipole Moments:

 ------------------------------------------------------------------------------------
     Multipole            Electronic (a.u.)      Nuclear  (a.u.)        Total (a.u.)
 ------------------------------------------------------------------------------------

 L = 1.  Multiply by 2.5417464519 to convert [e a0] to [Debye]
 Dipole X            :          0.0000000            0.0000000            0.0000000
 Dipole Y            :          0.0000000            0.0000000            0.0000000
 Dipole Z            :         -0.0060412            0.7173787            0.7113375
 Magnitude           :                                                    0.7113375

 L = 2.  Multiply by 1.3450342976 to convert [e a0^2] to [Debye ang]
 Quadrupole XX       :         -2.9082979            0.0000000           -2.9082979
 Quadrupole XY       :          0.0000000            0.0000000            0.0000000
 Quadrupole XZ       :          0.0000000            0.0000000            0.0000000
 Quadrupole YY       :         -2.9082979            0.0000000           -2.9082979
 Quadrupole YZ       :          0.0000000            0.0000000            0.0000000
 Quadrupole ZZ       :         -4.3583994            2.1589378           -2.1994616
 Traceless XX        :          0.4833671           -0.7196459           -0.2362788
 Traceless YY        :          0.4833671           -0.7196459           -0.2362788
 Traceless ZZ        :         -0.9667343            1.4392919            0.4725576

 ------------------------------------------------------------------------------------
  ==> Computing MBIS Charges <==

  Electron Count from Grid (Expected Number):  8.00000 ( 8.00000)
  Difference: -0.00000

  MBIS Charges: (a.u.)
   Center  Symbol  Z      Pop.       Charge
      1       O    8    7.468315    0.531685
      2       H    1    0.531685    0.468315

  MBIS Dipoles: [e a0]
   Center  Symbol  Z        X           Y           Z
      1       O    8   -0.000000    0.000000    0.045737
      2       H    1    0.000000    0.000000    0.036624

  MBIS Quadrupoles: [e a0^2]
   Center  Symbol  Z      XX        XY        XZ        YY        YZ        ZZ
      1       O    8   -2.7421    0.0000   -0.0000   -2.7421   -0.0000   -3.1176
      2       H    1   -0.1662   -0.0000   -0.0000   -0.1662   -0.0000   -0.1639

  MBIS Octupoles: [e a0^3]
   Center  Symbol  Z      XXX       XXY       XXZ       XYY       XYZ       XZZ       YYY       YYZ       YZZ       ZZZ
      1       O    8   -0.0000   -0.0000    0.0524   -0.0000    0.0000   -0.0000    0.0000    0.0524   -0.0000    0.0927
      2       H    1   -0.0000    0.0000    0.0040    0.0000   -0.0000   -0.0000   -0.0000    0.0040   -0.0000    0.0134

  MBIS Radial Moments:
   Center  Symbol  Z      [a0^2]      [a0^3]      [a0^4]
      1       O    8    8.601810   14.432798   29.053834
      2       H    1    0.496222    0.680728    1.121726

  MBIS Valence Widths: [a0]
   Center  Symbol  Z     Width
      1       O    8    0.351818
      2       H    1    0.281958

*** tstop() called on Mac.lan at Sun Aug 10 18:28:50 2025
Module time:
	user time   =       2.80 seconds =       0.05 minutes
	system time =       2.08 seconds =       0.03 minutes
	total time  =          0 seconds =       0.00 minutes
Total time:
	user time   =      11.29 seconds =       0.19 minutes
	system time =       3.84 seconds =       0.06 minutes
	total time  =          1 seconds =       0.02 minutes

    Psi4 stopped on: Sunday, 10 August 2025 06:28PM
    Psi4 wall time for execution: 0:00:01.48

*** Psi4 exiting successfully. Buy a developer a beer!
