                               Psi4 1.9.1 release

  ==> Input File <==

--------------------------------------------------------------------------
molecule {
1 3
O           0.000000           0.000000           0.000000
H           0.000000           0.000000           1.042564
}

set {
basis              cc-pvtz
reference          uks
maxiter            500
DAMPING_PERCENTAGE 1
E_CONVERGENCE      1.0E-8
D_CONVERGENCE      1.0E-8
DIIS_MAX_VECS      400
MBIS_MAXITER       8000
guess              read
}

E, wfn = energy('b3lyp', restart_file='last_wfn', return_wfn=True)
properties('b3lyp','MBIS_CHARGES', wfn=wfn)
wfn.to_file('last_wfn')
--------------------------------------------------------------------------

    Molecular point group: c2v
  Charge       = 1
  Multiplicity = 3
  Basis Set: CC-PVTZ
    Blend: CC-PVTZ
  Basis Set: (CC-PVTZ AUX)
    Blend: CC-PVTZ-JKFIT
  @DF-UKS Final Energy:   -75.28116804798047
    Total Energy =                        -75.2811680479804721
 Dipole X            :          0.0000000            0.0000000            0.0000000
 Dipole Y            :          0.0000000            0.0000000            0.0000000
 Dipole Z            :         -0.0113581            0.9191420            0.9077839
 Magnitude           :                                                    0.9077839
    Molecular point group: c2v

    Geometry (in Angstrom), charge = 1, multiplicity = 3:

       Center              X                  Y                   Z               Mass
    ------------   -----------------  -----------------  -----------------  -----------------
         O            0.000000000000     0.000000000000    -0.061797223178    15.994914619570
         H            0.000000000000     0.000000000000     0.980766776822     1.007825032230

  Charge       = 1
  Multiplicity = 3
  Basis Set: CC-PVTZ
    Blend: CC-PVTZ
  Basis Set: (CC-PVTZ AUX)
    Blend: CC-PVTZ-JKFIT

    Orbital Energies [Eh]
    ---------------------

    Alpha Occupied:

       1A1   -19.816936     2A1    -1.561679     3A1    -0.976619
       1B2    -0.946052     1B1    -0.946052

    Alpha Virtual:

       4A1    -0.326941     5A1    -0.009034     2B2     0.133903
       2B1     0.133903     6A1     0.173353     3B2     0.322676
       3B1     0.322676     7A1     0.482106     8A1     0.800661
       1A2     0.925201     9A1     0.925201     4B1     1.255734
       4B2     1.255734    10A1     1.523966    11A1     1.942785
      12A1     2.748921     2A2     2.748922     5B2     2.790105
       5B1     2.790105    13A1     3.136636     6B2     3.168980
       6B1     3.168980     7B2     3.514525     7B1     3.514525
      14A1     3.656103    15A1     4.230344     8B2     4.504326
       8B1     4.504326     3A2     4.729733    16A1     4.729733
       4A2     5.530763    17A1     5.530764     9B2     5.559071
       9B1     5.559071    18A1     5.696258    10B2     5.975573
      10B1     5.975573    19A1     6.335888    20A1     9.013632

    Beta Occupied:

       1A1   -19.760638     2A1    -1.407597     3A1    -0.923251

    Beta Virtual:

       1B2    -0.643276     1B1    -0.643276     4A1    -0.310239
       5A1    -0.003306     6A1     0.187663     2B2     0.199848
       2B1     0.199848     3B2     0.337514     3B1     0.337514
       7A1     0.537389     8A1     0.815640     9A1     1.037026
       1A2     1.037026     4B1     1.309599     4B2     1.309599
      10A1     1.552958    11A1     1.947949    12A1     2.754801
       2A2     2.754802     5B2     2.864845     5B1     2.864845
      13A1     3.148572     6B2     3.211367     6B1     3.211367
       7B2     3.558026     7B1     3.558026    14A1     3.689762
      15A1     4.286389     8B2     4.656423     8B1     4.656423
      16A1     4.826859     3A2     4.826859     9B2     5.652935
       9B1     5.652935     4A2     5.743727    17A1     5.743728
      18A1     5.748269    10B2     6.054662    10B1     6.054662
      19A1     6.403609    20A1     9.087251

    Final Occupation by Irrep:
             A1    A2    B1    B2
    DOCC [     3,    0,    0,    0 ]
    SOCC [     0,    0,    1,    1 ]
    NA   [     3,    0,    1,    1 ]
    NB   [     3,    0,    0,    0 ]

  @DF-UKS Final Energy:   -75.28116804788004

   => Energetics <=

    Nuclear Repulsion Energy =              4.0605830293008394
    One-Electron Energy =                -107.4106707695448506
    Two-Electron Energy =                  34.9333948014954032
    DFT Exchange-Correlation Energy =      -6.8644751091314529
    Empirical Dispersion Energy =           0.0000000000000000
    VV10 Nonlocal Energy =                  0.0000000000000000
    Total Energy =                        -75.2811680478800582

  UHF NO Occupations:
  HONO-2 :    3 A1 1.9981112
  HONO-1 :    1 B2 1.0000000
  HONO-0 :    1 B1 1.0000000
  LUNO+0 :    4 A1 0.0018888
  LUNO+1 :    5 A1 0.0006700
  LUNO+2 :    6 A1 0.0000014
  LUNO+3 :    7 A1 0.0000000

Computation Completed

Properties will be evaluated at   0.000000,   0.000000,   0.000000 [a0]

Properties computed using the B3LYP density matrix

 Multipole Moments:

 ------------------------------------------------------------------------------------
     Multipole            Electronic (a.u.)      Nuclear  (a.u.)        Total (a.u.)
 ------------------------------------------------------------------------------------

 L = 1.  Multiply by 2.5417464519 to convert [e a0] to [Debye]
 Dipole X            :          0.0000000            0.0000000            0.0000000
 Dipole Y            :          0.0000000            0.0000000            0.0000000
 Dipole Z            :         -0.0113581            0.9191420            0.9077839
 Magnitude           :                                                    0.9077839

 L = 2.  Multiply by 1.3450342976 to convert [e a0^2] to [Debye ang]
 Quadrupole XX       :         -3.0474475            0.0000000           -3.0474475
 Quadrupole XY       :          0.0000000            0.0000000            0.0000000
 Quadrupole XZ       :          0.0000000            0.0000000            0.0000000
 Quadrupole YY       :         -3.0474475            0.0000000           -3.0474475
 Quadrupole YZ       :          0.0000000            0.0000000            0.0000000
 Quadrupole ZZ       :         -5.0311001            3.5441199           -1.4869802
 Traceless XX        :          0.6612175           -1.1813733           -0.5201558
 Traceless YY        :          0.6612175           -1.1813733           -0.5201558
 Traceless ZZ        :         -1.3224350            2.3627466            1.0403116

 ------------------------------------------------------------------------------------
  ==> Computing MBIS Charges <==

  Electron Count from Grid (Expected Number):  8.00000 ( 8.00000)
  Difference:  0.00000

  MBIS Charges: (a.u.)
   Center  Symbol  Z      Pop.       Charge
      1       O    8    7.521619    0.478381
      2       H    1    0.478381    0.521619

  MBIS Dipoles: [e a0]
   Center  Symbol  Z        X           Y           Z
      1       O    8   -0.000000    0.000000   -0.055677
      2       H    1   -0.000000    0.000000    0.052567

  MBIS Quadrupoles: [e a0^2]
   Center  Symbol  Z      XX        XY        XZ        YY        YZ        ZZ
      1       O    8   -2.8405    0.0000   -0.0000   -2.8405   -0.0000   -3.2977
      2       H    1   -0.2070   -0.0000    0.0000   -0.2070    0.0000   -0.1954

  MBIS Octupoles: [e a0^3]
   Center  Symbol  Z      XXX       XXY       XXZ       XYY       XYZ       XZZ       YYY       YYZ       YZZ       ZZZ
      1       O    8   -0.0000   -0.0000   -0.0328    0.0000   -0.0000   -0.0000   -0.0000   -0.0328   -0.0000   -0.1571
      2       H    1    0.0000    0.0000    0.0100    0.0000    0.0000   -0.0000    0.0000    0.0100    0.0000    0.0436

  MBIS Radial Moments:
   Center  Symbol  Z      [a0^2]      [a0^3]      [a0^4]
      1       O    8    8.978670   15.308530   31.234923
      2       H    1    0.609358    0.968394    1.838323

  MBIS Valence Widths: [a0]
   Center  Symbol  Z     Width
      1       O    8    0.358458
      2       H    1    0.330177

*** tstop() called on Mac.lan at Sun Aug 10 18:28:21 2025
Module time:
	user time   =       2.99 seconds =       0.05 minutes
	system time =       1.62 seconds =       0.03 minutes
	total time  =          1 seconds =       0.02 minutes
Total time:
	user time   =      12.63 seconds =       0.21 minutes
	system time =       3.56 seconds =       0.06 minutes
	total time  =          2 seconds =       0.03 minutes

    Psi4 stopped on: Sunday, 10 August 2025 06:28PM
    Psi4 wall time for execution: 0:00:01.58

*** Psi4 exiting successfully. Buy a developer a beer!
