                               Psi4 1.9.1 release

  ==> Input File <==

--------------------------------------------------------------------------
molecule {
1 3
N           0.000000           0.000000           0.000000
C           0.000000           0.000000           1.485416
}

set {
basis              cc-pvtz
reference          uks
maxiter            500
DAMPING_PERCENTAGE 1
E_CONVERGENCE      1.0E-8
D_CONVERGENCE      1.0E-8
DIIS_MAX_VECS      400
MBIS_MAXITER       8000
guess              read
}

E, wfn = energy('b3lyp', restart_file='last_wfn', return_wfn=True)
properties('b3lyp','MBIS_CHARGES', wfn=wfn)
wfn.to_file('last_wfn')
--------------------------------------------------------------------------

    Molecular point group: c2v
  Charge       = 1
  Multiplicity = 3
  Basis Set: CC-PVTZ
    Blend: CC-PVTZ
  Basis Set: (CC-PVTZ AUX)
    Blend: CC-PVTZ-JKFIT
  @DF-UKS Final Energy:   -92.18008955050581
    Total Energy =                        -92.1800895505058122
 Dipole X            :          0.0000000            0.0000000            0.0000000
 Dipole Y            :          0.0000000            0.0000000            0.0000000
 Dipole Z            :          0.6054304            0.0019910            0.6074214
 Magnitude           :                                                    0.6074214
    Molecular point group: c2v

    Geometry (in Angstrom), charge = 1, multiplicity = 3:

       Center              X                  Y                   Z               Mass
    ------------   -----------------  -----------------  -----------------  -----------------
         N            0.000000000000     0.000000000000    -0.685495568599    14.003074004430
         C            0.000000000000     0.000000000000     0.799920431401    12.000000000000

  Charge       = 1
  Multiplicity = 3
  Basis Set: CC-PVTZ
    Blend: CC-PVTZ
  Basis Set: (CC-PVTZ AUX)
    Blend: CC-PVTZ-JKFIT

    Orbital Energies [Eh]
    ---------------------

    Alpha Occupied:

       1A1   -14.866951     2A1   -10.790940     3A1    -1.277203
       4A1    -0.932919     5A1    -0.774843     1B1    -0.758551
       1B2    -0.719651

    Alpha Virtual:

       2B1    -0.499239     2B2    -0.468706     6A1    -0.216702
       7A1    -0.008324     3B1     0.013565     3B2     0.024591
       8A1     0.027084     9A1     0.152002     4B1     0.190039
       4B2     0.206804     1A2     0.300952    10A1     0.301376
       5B1     0.372302     5B2     0.393843    11A1     0.555880
      12A1     0.719654     2A2     0.728732    13A1     0.729639
       6B1     1.024236     6B2     1.045690    14A1     1.230769
       7B1     1.570904     7B2     1.593099    15A1     1.774932
       8B1     2.203974     8B2     2.230870    16A1     2.246894
       3A2     2.246977     9B1     2.263978     9B2     2.264170
      17A1     2.412302    10B1     2.501655     4A2     2.515183
      18A1     2.515657    10B2     2.530514    19A1     2.667066
      11B1     2.798935    11B2     2.824224    20A1     2.835016
      12B1     3.465305    12B2     3.465415    21A1     3.636591
       5A2     3.637291    22A1     3.856402    13B1     4.010189
      23A1     4.022610     6A2     4.022845    13B2     4.043303
      24A1     4.395642    14B1     4.504020    14B2     4.531924
      25A1     5.086295    26A1     7.377146

    Beta Occupied:

       1A1   -14.837834     2A1   -10.778353     3A1    -1.198757
       4A1    -0.840272     1B2    -0.689849

    Beta Virtual:

       5A1    -0.599254     1B1    -0.584975     2B2    -0.446456
       2B1    -0.405094     6A1    -0.157167     7A1     0.015192
       3B2     0.023575     3B1     0.030480     8A1     0.060987
       9A1     0.181174     4B2     0.222216     4B1     0.232806
       1A2     0.315729    10A1     0.317854     5B2     0.420086
       5B1     0.427140    11A1     0.590072    12A1     0.759948
       2A2     0.771466    13A1     0.773986     6B2     1.076408
       6B1     1.082733    14A1     1.278658     7B2     1.591681
       7B1     1.603131    15A1     1.826783     8B2     2.257915
       8B1     2.272590     9B2     2.278395     3A2     2.278753
       9B1     2.279244    16A1     2.281378    17A1     2.467948
       4A2     2.536944    18A1     2.541678    10B2     2.565228
      10B1     2.582002    19A1     2.723260    11B2     2.869195
      11B1     2.878695    20A1     2.906473    12B2     3.526586
      12B1     3.527721     5A2     3.697072    21A1     3.700476
      22A1     3.911696    13B2     4.092901     6A2     4.104970
      23A1     4.110912    13B1     4.111941    24A1     4.470500
      14B2     4.584116    14B1     4.594571    25A1     5.141267
      26A1     7.419414

    Final Occupation by Irrep:
             A1    A2    B1    B2
    DOCC [     4,    0,    0,    1 ]
    SOCC [     1,    0,    1,    0 ]
    NA   [     5,    0,    1,    1 ]
    NB   [     4,    0,    0,    1 ]

  @DF-UKS Final Energy:   -92.18008955797893

   => Energetics <=

    Nuclear Repulsion Energy =             14.9624366831513864
    One-Electron Energy =                -149.0480679555153074
    Two-Electron Energy =                  51.2950933574672590
    DFT Exchange-Correlation Energy =      -9.3895516430822781
    Empirical Dispersion Energy =           0.0000000000000000
    VV10 Nonlocal Energy =                  0.0000000000000000
    Total Energy =                        -92.1800895579789312

  UHF NO Occupations:
  HONO-2 :    1 B2 1.9885978
  HONO-1 :    5 A1 1.0000000
  HONO-0 :    1 B1 1.0000000
  LUNO+0 :    2 B2 0.0114022
  LUNO+1 :    6 A1 0.0033452
  LUNO+2 :    7 A1 0.0004057
  LUNO+3 :    8 A1 0.0000007

Computation Completed

Properties will be evaluated at   0.000000,   0.000000,   0.000000 [a0]

Properties computed using the B3LYP density matrix

 Multipole Moments:

 ------------------------------------------------------------------------------------
     Multipole            Electronic (a.u.)      Nuclear  (a.u.)        Total (a.u.)
 ------------------------------------------------------------------------------------

 L = 1.  Multiply by 2.5417464519 to convert [e a0] to [Debye]
 Dipole X            :          0.0000000            0.0000000            0.0000000
 Dipole Y            :          0.0000000            0.0000000            0.0000000
 Dipole Z            :          0.6054315            0.0019910            0.6074226
 Magnitude           :                                                    0.6074226

 L = 2.  Multiply by 1.3450342976 to convert [e a0^2] to [Debye ang]
 Quadrupole XX       :         -6.0652574            0.0000000           -6.0652574
 Quadrupole XY       :          0.0000000            0.0000000            0.0000000
 Quadrupole XZ       :          0.0000000            0.0000000            0.0000000
 Quadrupole YY       :         -7.1951931            0.0000000           -7.1951931
 Quadrupole YZ       :          0.0000000            0.0000000            0.0000000
 Quadrupole ZZ       :        -29.2506010           25.4565692           -3.7940318
 Traceless XX        :          8.1050931           -8.4855231           -0.3804300
 Traceless YY        :          6.9751574           -8.4855231           -1.5103656
 Traceless ZZ        :        -15.0802505           16.9710461            1.8907956

 ------------------------------------------------------------------------------------
  ==> Computing MBIS Charges <==

  Electron Count from Grid (Expected Number): 12.00000 (12.00000)
  Difference:  0.00000

  MBIS Charges: (a.u.)
   Center  Symbol  Z      Pop.       Charge
      1       N    7    6.723345    0.276655
      2       C    6    5.276655    0.723345

  MBIS Dipoles: [e a0]
   Center  Symbol  Z        X           Y           Z
      1       N    7   -0.000000    0.000000   -0.260233
      2       C    6   -0.000000    0.000000    0.132604

  MBIS Quadrupoles: [e a0^2]
   Center  Symbol  Z      XX        XY        XZ        YY        YZ        ZZ
      1       N    7   -3.2722    0.0000    0.0000   -3.8335    0.0000   -3.6607
      2       C    6   -2.7930    0.0000   -0.0000   -3.3617    0.0000   -3.3255

  MBIS Octupoles: [e a0^3]
   Center  Symbol  Z      XXX       XXY       XXZ       XYY       XYZ       XZZ       YYY       YYZ       YZZ       ZZZ
      1       N    7   -0.0000   -0.0000   -0.2032   -0.0000   -0.0000   -0.0000   -0.0000   -0.3751   -0.0000   -0.8748
      2       C    6   -0.0000   -0.0000    0.1495   -0.0000   -0.0000   -0.0000    0.0000    0.3315    0.0000    0.5640

  MBIS Radial Moments:
   Center  Symbol  Z      [a0^2]      [a0^3]      [a0^4]
      1       N    7   10.766435   21.544945   51.382941
      2       C    6    9.480262   20.755733   54.068558

  MBIS Valence Widths: [a0]
   Center  Symbol  Z     Width
      1       N    7    0.424212
      2       C    6    0.472677

*** tstop() called on Mac.lan at Sun Aug 10 18:34:29 2025
Module time:
	user time   =       3.48 seconds =       0.06 minutes
	system time =       2.13 seconds =       0.04 minutes
	total time  =          0 seconds =       0.00 minutes
Total time:
	user time   =      28.61 seconds =       0.48 minutes
	system time =       4.74 seconds =       0.08 minutes
	total time  =          3 seconds =       0.05 minutes

    Psi4 stopped on: Sunday, 10 August 2025 06:34PM
    Psi4 wall time for execution: 0:00:03.39

*** Psi4 exiting successfully. Buy a developer a beer!
