                               Psi4 1.9.1 release

  ==> Input File <==

--------------------------------------------------------------------------
molecule {
1 2
N           0.000000           0.000000           0.000000
N           0.000000           0.000000           0.926657
}

set {
basis              cc-pvtz
reference          uks
maxiter            500
DAMPING_PERCENTAGE 1
E_CONVERGENCE      1.0E-8
D_CONVERGENCE      1.0E-8
DIIS_MAX_VECS      400
MBIS_MAXITER       8000
guess              read
}

E, wfn = energy('b3lyp', restart_file='last_wfn', return_wfn=True)
properties('b3lyp','MBIS_CHARGES', wfn=wfn)
wfn.to_file('last_wfn')
--------------------------------------------------------------------------

    Molecular point group: d2h
  Charge       = 1
  Multiplicity = 2
  Basis Set: CC-PVTZ
    Blend: CC-PVTZ
  Basis Set: (CC-PVTZ AUX)
    Blend: CC-PVTZ-JKFIT
  @DF-UKS Final Energy:  -108.85894632721724
    Total Energy =                       -108.8589463272172395
 Dipole X            :          0.0000000            0.0000000            0.0000000
 Dipole Y            :          0.0000000            0.0000000            0.0000000
 Dipole Z            :          0.0000000            0.0000000            0.0000000
 Magnitude           :                                                    0.0000000
    Molecular point group: d2h

    Geometry (in Angstrom), charge = 1, multiplicity = 2:

       Center              X                  Y                   Z               Mass
    ------------   -----------------  -----------------  -----------------  -----------------
         N            0.000000000000     0.000000000000    -0.463328500000    14.003074004430
         N            0.000000000000     0.000000000000     0.463328500000    14.003074004430

  Charge       = 1
  Multiplicity = 2
  Basis Set: CC-PVTZ
    Blend: CC-PVTZ
  Basis Set: (CC-PVTZ AUX)
    Blend: CC-PVTZ-JKFIT

    Orbital Energies [Eh]
    ---------------------

    Alpha Occupied:

       1Ag   -14.885715     1B1u  -14.876832     2Ag    -1.693558
       2B1u   -0.978495     1B3u   -0.974191     1B2u   -0.974191
       3Ag    -0.925812

    Alpha Virtual:

       1B2g   -0.356726     1B3g   -0.356726     3B1u    0.020147
       2B3u    0.047624     2B2u    0.047624     4Ag     0.084139
       5Ag     0.130271     2B2g    0.239129     2B3g    0.239129
       4B1u    0.433430     6Ag     0.448828     1B1g    0.448828
       5B1u    0.726297     3B2u    0.802510     3B3u    0.802510
       6B1u    0.955188     1Au     0.955188     7Ag     1.242865
       3B2g    1.322860     3B3g    1.322860     7B1u    1.900561
       4B3u    2.263905     4B2u    2.263905     8Ag     2.617955
       4B2g    2.830428     4B3g    2.830428     8B1u    2.905919
       5B3u    3.096788     5B2u    3.096788     9Ag     3.098910
       2B1g    3.098910     6B3u    3.312242     6B2u    3.312242
      10Ag     3.629860     5B2g    3.807343     5B3g    3.807343
       6B2g    3.857225     6B3g    3.857225    11Ag     3.942439
       3B1g    3.942440     9B1u    4.028642     2Au     4.028643
      12Ag     4.420316    10B1u    4.573823     7B2u    4.791442
       7B3u    4.791442    11B1u    4.910148     3Au     4.910148
      12B1u    5.855394     7B2g    6.706072     7B3g    6.706072
      13Ag     7.352154    13B1u   21.949157

    Beta Occupied:

       1Ag   -14.871755     1B1u  -14.863449     2Ag    -1.662865
       1B3u   -0.960104     1B2u   -0.960104     2B1u   -0.882822

    Beta Virtual:

       3Ag    -0.745688     1B2g   -0.330431     1B3g   -0.330431
       3B1u    0.032118     2B3u    0.052118     2B2u    0.052118
       4Ag     0.100466     5Ag     0.159913     2B2g    0.246111
       2B3g    0.246111     6Ag     0.454269     1B1g    0.454269
       4B1u    0.469351     5B1u    0.749166     3B2u    0.835074
       3B3u    0.835074     6B1u    0.967903     1Au     0.967903
       7Ag     1.281517     3B2g    1.345640     3B3g    1.345640
       7B1u    1.946001     4B3u    2.274375     4B2u    2.274375
       8Ag     2.649108     4B2g    2.840879     4B3g    2.840879
       8B1u    2.950561     5B3u    3.103075     5B2u    3.103075
       2B1g    3.109888     9Ag     3.109888     6B3u    3.353774
       6B2u    3.353774    10Ag     3.710392     5B2g    3.817778
       5B3g    3.817778     6B2g    3.918194     6B3g    3.918194
      11Ag     3.967838     3B1g    3.967839     9B1u    4.053963
       2Au     4.053964    12Ag     4.460188    10B1u    4.626475
       7B2u    4.841551     7B3u    4.841551    11B1u    4.928956
       3Au     4.928956    12B1u    5.914696     7B2g    6.741774
       7B3g    6.741774    13Ag     7.379414    13B1u   21.970105

    Final Occupation by Irrep:
             Ag   B1g   B2g   B3g    Au   B1u   B2u   B3u
    DOCC [     2,    0,    0,    0,    0,    2,    1,    1 ]
    SOCC [     1,    0,    0,    0,    0,    0,    0,    0 ]
    NA   [     3,    0,    0,    0,    0,    2,    1,    1 ]
    NB   [     2,    0,    0,    0,    0,    2,    1,    1 ]

  @DF-UKS Final Energy:  -108.85894632725567

   => Energetics <=

    Nuclear Repulsion Energy =             27.9819645487273085
    One-Electron Energy =                -196.2948273936474948
    Two-Electron Energy =                  70.4076658075315152
    DFT Exchange-Correlation Energy =     -10.9537492898670106
    Empirical Dispersion Energy =           0.0000000000000000
    VV10 Nonlocal Energy =                  0.0000000000000000
    Total Energy =                       -108.8589463272556657

  UHF NO Occupations:
  HONO-2 :    2 Ag 1.9999161
  HONO-1 :    2B1u 1.9989807
  HONO-0 :    3 Ag 1.0000000
  LUNO+0 :    3B1u 0.0010193
  LUNO+1 :    4 Ag 0.0000839
  LUNO+2 :    2B3u 0.0000687
  LUNO+3 :    2B2u 0.0000687

Computation Completed

Properties will be evaluated at   0.000000,   0.000000,   0.000000 [a0]

Properties computed using the B3LYP density matrix

 Multipole Moments:

 ------------------------------------------------------------------------------------
     Multipole            Electronic (a.u.)      Nuclear  (a.u.)        Total (a.u.)
 ------------------------------------------------------------------------------------

 L = 1.  Multiply by 2.5417464519 to convert [e a0] to [Debye]
 Dipole X            :          0.0000000            0.0000000            0.0000000
 Dipole Y            :          0.0000000            0.0000000            0.0000000
 Dipole Z            :          0.0000000            0.0000000            0.0000000
 Magnitude           :                                                    0.0000000

 L = 2.  Multiply by 1.3450342976 to convert [e a0^2] to [Debye ang]
 Quadrupole XX       :         -5.7380028            0.0000000           -5.7380028
 Quadrupole XY       :          0.0000000            0.0000000            0.0000000
 Quadrupole XZ       :          0.0000000            0.0000000            0.0000000
 Quadrupole YY       :         -5.7380028            0.0000000           -5.7380028
 Quadrupole YZ       :          0.0000000            0.0000000            0.0000000
 Quadrupole ZZ       :        -15.5333503           10.7325717           -4.8007785
 Traceless XX        :          3.2651158           -3.5775239           -0.3124081
 Traceless YY        :          3.2651158           -3.5775239           -0.3124081
 Traceless ZZ        :         -6.5302317            7.1550478            0.6248162

 ------------------------------------------------------------------------------------
  ==> Computing MBIS Charges <==

  Electron Count from Grid (Expected Number): 13.00000 (13.00000)
  Difference: -0.00000

  MBIS Charges: (a.u.)
   Center  Symbol  Z      Pop.       Charge
      1       N    7    6.500000    0.500000
      2       N    7    6.500000    0.500000

  MBIS Dipoles: [e a0]
   Center  Symbol  Z        X           Y           Z
      1       N    7    0.000000   -0.000000   -0.169776
      2       N    7    0.000000   -0.000000    0.169776

  MBIS Quadrupoles: [e a0^2]
   Center  Symbol  Z      XX        XY        XZ        YY        YZ        ZZ
      1       N    7   -2.8690   -0.0000   -0.0000   -2.8690   -0.0000   -3.0810
      2       N    7   -2.8690   -0.0000    0.0000   -2.8690    0.0000   -3.0810

  MBIS Octupoles: [e a0^3]
   Center  Symbol  Z      XXX       XXY       XXZ       XYY       XYZ       XZZ       YYY       YYZ       YZZ       ZZZ
      1       N    7    0.0000    0.0000   -0.0931    0.0000    0.0000    0.0000    0.0000   -0.0931    0.0000   -0.1475
      2       N    7    0.0000    0.0000    0.0931    0.0000   -0.0000    0.0000    0.0000    0.0931    0.0000    0.1475

  MBIS Radial Moments:
   Center  Symbol  Z      [a0^2]      [a0^3]      [a0^4]
      1       N    7    8.818998   16.240332   35.743686
      2       N    7    8.818998   16.240332   35.743686

  MBIS Valence Widths: [a0]
   Center  Symbol  Z     Width
      1       N    7    0.390161
      2       N    7    0.390161

*** tstop() called on Mac.lan at Sun Aug 10 18:24:26 2025
Module time:
	user time   =       3.99 seconds =       0.07 minutes
	system time =       1.53 seconds =       0.03 minutes
	total time  =          0 seconds =       0.00 minutes
Total time:
	user time   =      17.30 seconds =       0.29 minutes
	system time =       4.27 seconds =       0.07 minutes
	total time  =          2 seconds =       0.03 minutes

    Psi4 stopped on: Sunday, 10 August 2025 06:24PM
    Psi4 wall time for execution: 0:00:02.14

*** Psi4 exiting successfully. Buy a developer a beer!
