                               Psi4 1.9.1 release

  ==> Input File <==

--------------------------------------------------------------------------
molecule {
1 2
O           0.000000           0.000000           0.000000
C           0.000000           0.000000           0.665995
}

set {
basis              cc-pvtz
reference          uks
maxiter            500
DAMPING_PERCENTAGE 1
E_CONVERGENCE      1.0E-8
D_CONVERGENCE      1.0E-8
DIIS_MAX_VECS      400
MBIS_MAXITER       8000
guess              read
}

E, wfn = energy('b3lyp', restart_file='last_wfn', return_wfn=True)
properties('b3lyp','MBIS_CHARGES', wfn=wfn)
wfn.to_file('last_wfn')
--------------------------------------------------------------------------

    Molecular point group: c2v
  Charge       = 1
  Multiplicity = 2
  Basis Set: CC-PVTZ
    Blend: CC-PVTZ
  Basis Set: (CC-PVTZ AUX)
    Blend: CC-PVTZ-JKFIT
  @DF-UKS Final Energy:  -111.19365856453602
    Total Energy =                       -111.1936585645360225
 Dipole X            :          0.0000000            0.0000000            0.0000000
 Dipole Y            :          0.0000000            0.0000000            0.0000000
 Dipole Z            :          0.6635614           -0.0013717            0.6621896
 Magnitude           :                                                    0.6621896
    Molecular point group: c2v

    Geometry (in Angstrom), charge = 1, multiplicity = 2:

       Center              X                  Y                   Z               Mass
    ------------   -----------------  -----------------  -----------------  -----------------
         O            0.000000000000     0.000000000000    -0.285478277344    15.994914619570
         C            0.000000000000     0.000000000000     0.380516722656    12.000000000000

  Charge       = 1
  Multiplicity = 2
  Basis Set: CC-PVTZ
    Blend: CC-PVTZ
  Basis Set: (CC-PVTZ AUX)
    Blend: CC-PVTZ-JKFIT

    Orbital Energies [Eh]
    ---------------------

    Alpha Occupied:

       1A1   -19.629476     2A1   -10.767612     3A1    -1.699534
       1B2    -1.155176     1B1    -1.155176     4A1    -0.928563
       5A1    -0.843798

    Alpha Virtual:

       2B2    -0.191513     2B1    -0.191513     6A1    -0.095154
       7A1    -0.028297     3B2    -0.011784     3B1    -0.011784
       8A1     0.250974     9A1     0.263088     1A2     0.263088
       4B2     0.326955     4B1     0.326955    10A1     0.529830
       5B2     0.735159     5B1     0.735159    11A1     1.009532
       6B2     1.203028     6B1     1.203028    12A1     1.293675
       2A2     1.293675    13A1     1.373282    14A1     1.964902
       7B2     1.983551     7B1     1.983551     8B2     2.197756
       8B1     2.197756    15A1     2.358393     3A2     2.372496
      16A1     2.372496     9B2     2.597758     9B1     2.597758
      17A1     2.792374     4A2     2.812539    18A1     2.812539
      10B1     3.702924    10B2     3.702924    11B2     3.872603
      11B1     3.872603    19A1     4.162070    12B1     4.930800
      12B2     4.930800    20A1     5.549174    21A1     5.818557
       5A2     5.818558    22A1     6.248099     6A2     6.248099
      13B2     6.298951    13B1     6.298951    23A1     6.382506
      24A1     7.462253    14B2     7.591725    14B1     7.591725
      25A1     9.887561    26A1    17.842864

    Beta Occupied:

       1A1   -19.628180     2A1   -10.744438     3A1    -1.694269
       1B2    -1.143136     1B1    -1.143136     4A1    -0.914247

    Beta Virtual:

       5A1    -0.615197     2B2    -0.159324     2B1    -0.159324
       6A1    -0.085758     7A1     0.007766     3B2     0.009659
       3B1     0.009659     8A1     0.271238     1A2     0.280844
       9A1     0.280844     4B2     0.339880     4B1     0.339880
      10A1     0.570302     5B2     0.761844     5B1     0.761844
      11A1     1.030153     6B2     1.222105     6B1     1.222105
      12A1     1.296396     2A2     1.296396    13A1     1.420734
      14A1     2.000261     7B2     2.015779     7B1     2.015779
       8B2     2.229525     8B1     2.229525     3A2     2.445174
      15A1     2.445174    16A1     2.445374     9B2     2.692609
       9B1     2.692609     4A2     2.847377    17A1     2.847377
      18A1     2.866750    10B1     3.704614    10B2     3.704614
      11B2     3.917164    11B1     3.917164    19A1     4.179219
      12B1     4.932327    12B2     4.932327    20A1     5.564405
      21A1     5.816425     5A2     5.816426    22A1     6.261202
       6A2     6.261202    13B2     6.309059    13B1     6.309059
      23A1     6.392714    24A1     7.489235    14B2     7.611754
      14B1     7.611754    25A1     9.907250    26A1    17.871052

    Final Occupation by Irrep:
             A1    A2    B1    B2
    DOCC [     4,    0,    1,    1 ]
    SOCC [     1,    0,    0,    0 ]
    NA   [     5,    0,    1,    1 ]
    NB   [     4,    0,    1,    1 ]

  @DF-UKS Final Energy:  -111.19365856422500

   => Energetics <=

    Nuclear Repulsion Energy =             38.1391843965194965
    One-Electron Energy =                -218.8360389048605725
    Two-Electron Energy =                  81.1890260924286054
    DFT Exchange-Correlation Energy =     -11.6858301483125437
    Empirical Dispersion Energy =           0.0000000000000000
    VV10 Nonlocal Energy =                  0.0000000000000000
    Total Energy =                       -111.1936585642250037

  UHF NO Occupations:
  HONO-2 :    1 B1 1.9995097
  HONO-1 :    1 B2 1.9995097
  HONO-0 :    5 A1 1.0000000
  LUNO+0 :    2 B2 0.0004903
  LUNO+1 :    2 B1 0.0004903
  LUNO+2 :    6 A1 0.0000979
  LUNO+3 :    7 A1 0.0000072

Computation Completed

Properties will be evaluated at   0.000000,   0.000000,   0.000000 [a0]

Properties computed using the B3LYP density matrix

 Multipole Moments:

 ------------------------------------------------------------------------------------
     Multipole            Electronic (a.u.)      Nuclear  (a.u.)        Total (a.u.)
 ------------------------------------------------------------------------------------

 L = 1.  Multiply by 2.5417464519 to convert [e a0] to [Debye]
 Dipole X            :          0.0000000            0.0000000            0.0000000
 Dipole Y            :          0.0000000            0.0000000            0.0000000
 Dipole Z            :          0.6635614           -0.0013717            0.6621896
 Magnitude           :                                                    0.6621896

 L = 2.  Multiply by 1.3450342976 to convert [e a0^2] to [Debye ang]
 Quadrupole XX       :         -4.8208259            0.0000000           -4.8208259
 Quadrupole XY       :          0.0000000            0.0000000            0.0000000
 Quadrupole XZ       :          0.0000000            0.0000000            0.0000000
 Quadrupole YY       :         -4.8208259            0.0000000           -4.8208259
 Quadrupole YZ       :          0.0000000            0.0000000            0.0000000
 Quadrupole ZZ       :        -10.1984179            5.4306634           -4.7677545
 Traceless XX        :          1.7925306           -1.8102211           -0.0176905
 Traceless YY        :          1.7925306           -1.8102211           -0.0176905
 Traceless ZZ        :         -3.5850613            3.6204423            0.0353810

 ------------------------------------------------------------------------------------
  ==> Computing MBIS Charges <==

  Electron Count from Grid (Expected Number): 13.00000 (13.00000)
  Difference: -0.00000

  MBIS Charges: (a.u.)
   Center  Symbol  Z      Pop.       Charge
      1       O    8    8.062710   -0.062710
      2       C    6    4.937289    1.062711

  MBIS Dipoles: [e a0]
   Center  Symbol  Z        X           Y           Z
      1       O    8   -0.000000   -0.000000   -0.142268
      2       C    6    0.000000    0.000000    0.006460

  MBIS Quadrupoles: [e a0^2]
   Center  Symbol  Z      XX        XY        XZ        YY        YZ        ZZ
      1       O    8   -2.8459    0.0000   -0.0000   -2.8459    0.0000   -3.1790
      2       C    6   -1.9749   -0.0000   -0.0000   -1.9749    0.0000   -2.2828

  MBIS Octupoles: [e a0^3]
   Center  Symbol  Z      XXX       XXY       XXZ       XYY       XYZ       XZZ       YYY       YYZ       YZZ       ZZZ
      1       O    8    0.0000   -0.0000   -0.0435   -0.0000    0.0000    0.0000   -0.0000   -0.0435   -0.0000    0.1392
      2       C    6   -0.0000    0.0000   -0.0973   -0.0000    0.0000    0.0000    0.0000   -0.0973    0.0000   -0.4422

  MBIS Radial Moments:
   Center  Symbol  Z      [a0^2]      [a0^3]      [a0^4]
      1       O    8    8.870754   14.472647   28.385030
      2       C    6    6.232682   11.854213   27.263470

  MBIS Valence Widths: [a0]
   Center  Symbol  Z     Width
      1       O    8    0.338026
      2       C    6    0.393803

*** tstop() called on Mac.lan at Sun Aug 10 18:37:31 2025
Module time:
	user time   =       3.71 seconds =       0.06 minutes
	system time =       2.99 seconds =       0.05 minutes
	total time  =          1 seconds =       0.02 minutes
Total time:
	user time   =      17.77 seconds =       0.30 minutes
	system time =       5.47 seconds =       0.09 minutes
	total time  =          2 seconds =       0.03 minutes

    Psi4 stopped on: Sunday, 10 August 2025 06:37PM
    Psi4 wall time for execution: 0:00:02.25

*** Psi4 exiting successfully. Buy a developer a beer!
