                               Psi4 1.9.1 release

  ==> Input File <==

--------------------------------------------------------------------------
molecule {
1 3
O           0.000000           0.000000           0.000000
H           0.000000           0.000000           1.080706
}

set {
basis              cc-pvtz
reference          uks
maxiter            500
DAMPING_PERCENTAGE 1
E_CONVERGENCE      1.0E-8
D_CONVERGENCE      1.0E-8
DIIS_MAX_VECS      400
MBIS_MAXITER       8000
guess              SAP
}

E, wfn = energy('b3lyp', return_wfn=True)
properties('b3lyp','MBIS_CHARGES', wfn=wfn)
wfn.to_file('last_wfn')
--------------------------------------------------------------------------

    Molecular point group: c2v
  Charge       = 1
  Multiplicity = 3
  Basis Set: CC-PVTZ
    Blend: CC-PVTZ
  Basis Set: (CC-PVTZ AUX)
    Blend: CC-PVTZ-JKFIT
  @DF-UKS Final Energy:   -75.28021466804023
    Total Energy =                        -75.2802146680402444
 Dipole X            :          0.0000000            0.0000000            0.0000000
 Dipole Y            :          0.0000000            0.0000000            0.0000000
 Dipole Z            :         -0.0072707            0.9527686            0.9454979
 Magnitude           :                                                    0.9454979
    Molecular point group: c2v

    Geometry (in Angstrom), charge = 1, multiplicity = 3:

       Center              X                  Y                   Z               Mass
    ------------   -----------------  -----------------  -----------------  -----------------
         O            0.000000000000     0.000000000000    -0.064058062500    15.994914619570
         H            0.000000000000     0.000000000000     1.016647937500     1.007825032230

  Charge       = 1
  Multiplicity = 3
  Basis Set: CC-PVTZ
    Blend: CC-PVTZ
  Basis Set: (CC-PVTZ AUX)
    Blend: CC-PVTZ-JKFIT

    Orbital Energies [Eh]
    ---------------------

    Alpha Occupied:

       1A1   -19.813102     2A1    -1.549991     3A1    -0.965773
       1B1    -0.940531     1B2    -0.940531

    Alpha Virtual:

       4A1    -0.341701     5A1    -0.015877     2B1     0.133295
       2B2     0.133295     6A1     0.179141     3B1     0.323184
       3B2     0.323184     7A1     0.487163     8A1     0.773873
       1A2     0.929874     9A1     0.929874     4B1     1.238694
       4B2     1.238694    10A1     1.562779    11A1     1.924043
      12A1     2.748856     2A2     2.748857     5B1     2.780889
       5B2     2.780889    13A1     3.078608     6B1     3.176018
       6B2     3.176018     7B1     3.474567     7B2     3.474567
      14A1     3.585626    15A1     4.271469     8B2     4.509490
       8B1     4.509490     3A2     4.699977    16A1     4.699977
       9B1     5.461638     9B2     5.461638     4A2     5.533850
      17A1     5.533850    18A1     5.645950    10B1     5.952208
      10B2     5.952208    19A1     6.301666    20A1     8.707028

    Beta Occupied:

       1A1   -19.756687     2A1    -1.394267     3A1    -0.913398

    Beta Virtual:

       1B1    -0.637944     1B2    -0.637944     4A1    -0.325376
       5A1    -0.011827     6A1     0.194196     2B1     0.197510
       2B2     0.197510     3B1     0.338494     3B2     0.338494
       7A1     0.543937     8A1     0.787019     9A1     1.041762
       1A2     1.041762     4B1     1.292666     4B2     1.292666
      10A1     1.593892    11A1     1.924264    12A1     2.751789
       2A2     2.751790     5B1     2.851752     5B2     2.851752
      13A1     3.092062     6B1     3.217511     6B2     3.217511
       7B1     3.518494     7B2     3.518494    14A1     3.613651
      15A1     4.324681     8B1     4.661498     8B2     4.661498
      16A1     4.797357     3A2     4.797357     9B1     5.549133
       9B2     5.549133    17A1     5.698030     4A2     5.747157
      18A1     5.747157    10B1     6.039067    10B2     6.039067
      19A1     6.374734    20A1     8.780716

    Final Occupation by Irrep:
             A1    A2    B1    B2
    DOCC [     3,    0,    0,    0 ]
    SOCC [     0,    0,    1,    1 ]
    NA   [     3,    0,    1,    1 ]
    NB   [     3,    0,    0,    0 ]

  @DF-UKS Final Energy:   -75.28021466804023

   => Energetics <=

    Nuclear Repulsion Energy =              3.9172704559426896
    One-Electron Energy =                -107.1933448391965698
    Two-Electron Energy =                  34.8507277928593382
    DFT Exchange-Correlation Energy =      -6.8548680776456905
    Empirical Dispersion Energy =           0.0000000000000000
    VV10 Nonlocal Energy =                  0.0000000000000000
    Total Energy =                        -75.2802146680402444

  UHF NO Occupations:
  HONO-2 :    3 A1 1.9979094
  HONO-1 :    1 B1 1.0000000
  HONO-0 :    1 B2 1.0000000
  LUNO+0 :    4 A1 0.0020906
  LUNO+1 :    5 A1 0.0007193
  LUNO+2 :    6 A1 0.0000014
  LUNO+3 :    7 A1 0.0000000

Computation Completed

Properties will be evaluated at   0.000000,   0.000000,   0.000000 [a0]

Properties computed using the B3LYP density matrix

 Multipole Moments:

 ------------------------------------------------------------------------------------
     Multipole            Electronic (a.u.)      Nuclear  (a.u.)        Total (a.u.)
 ------------------------------------------------------------------------------------

 L = 1.  Multiply by 2.5417464519 to convert [e a0] to [Debye]
 Dipole X            :          0.0000000            0.0000000            0.0000000
 Dipole Y            :          0.0000000            0.0000000            0.0000000
 Dipole Z            :         -0.0072707            0.9527686            0.9454979
 Magnitude           :                                                    0.9454979

 L = 2.  Multiply by 1.3450342976 to convert [e a0^2] to [Debye ang]
 Quadrupole XX       :         -3.0680220            0.0000000           -3.0680220
 Quadrupole XY       :          0.0000000            0.0000000            0.0000000
 Quadrupole XZ       :          0.0000000            0.0000000            0.0000000
 Quadrupole YY       :         -3.0680220            0.0000000           -3.0680220
 Quadrupole YZ       :          0.0000000            0.0000000            0.0000000
 Quadrupole ZZ       :         -5.1450337            3.8081854           -1.3368483
 Traceless XX        :          0.6923372           -1.2693951           -0.5770579
 Traceless YY        :          0.6923372           -1.2693951           -0.5770579
 Traceless ZZ        :         -1.3846745            2.5387902            1.1541158

 ------------------------------------------------------------------------------------
  ==> Computing MBIS Charges <==

  Electron Count from Grid (Expected Number):  8.00000 ( 8.00000)
  Difference:  0.00000

  MBIS Charges: (a.u.)
   Center  Symbol  Z      Pop.       Charge
      1       O    8    7.529280    0.470720
      2       H    1    0.470721    0.529279

  MBIS Dipoles: [e a0]
   Center  Symbol  Z        X           Y           Z
      1       O    8   -0.000000   -0.000000   -0.069723
      2       H    1    0.000000   -0.000000    0.055358

  MBIS Quadrupoles: [e a0^2]
   Center  Symbol  Z      XX        XY        XZ        YY        YZ        ZZ
      1       O    8   -2.8550   -0.0000    0.0000   -2.8550   -0.0000   -3.3273
      2       H    1   -0.2130   -0.0000    0.0000   -0.2130   -0.0000   -0.1996

  MBIS Octupoles: [e a0^3]
   Center  Symbol  Z      XXX       XXY       XXZ       XYY       XYZ       XZZ       YYY       YYZ       YZZ       ZZZ
      1       O    8   -0.0000   -0.0000   -0.0453    0.0000   -0.0000   -0.0000   -0.0000   -0.0453   -0.0000   -0.1983
      2       H    1    0.0000   -0.0000    0.0119    0.0000   -0.0000    0.0000   -0.0000    0.0119   -0.0000    0.0501

  MBIS Radial Moments:
   Center  Symbol  Z      [a0^2]      [a0^3]      [a0^4]
      1       O    8    9.037301   15.453243   31.612216
      2       H    1    0.625623    1.013788    1.960705

  MBIS Valence Widths: [a0]
   Center  Symbol  Z     Width
      1       O    8    0.359440
      2       H    1    0.337459

*** tstop() called on Mac.lan at Sun Aug 10 18:29:18 2025
Module time:
	user time   =      13.18 seconds =       0.22 minutes
	system time =       1.63 seconds =       0.03 minutes
	total time  =          1 seconds =       0.02 minutes
Total time:
	user time   =      27.16 seconds =       0.45 minutes
	system time =       4.77 seconds =       0.08 minutes
	total time  =          3 seconds =       0.05 minutes

    Psi4 stopped on: Sunday, 10 August 2025 06:29PM
    Psi4 wall time for execution: 0:00:03.19

*** Psi4 exiting successfully. Buy a developer a beer!
