                               Psi4 1.9.1 release

  ==> Input File <==

--------------------------------------------------------------------------
molecule {
1 2
O           0.000000           0.000000           0.000000
C           0.000000           0.000000           1.318397
}

set {
basis              cc-pvtz
reference          uks
maxiter            500
DAMPING_PERCENTAGE 1
E_CONVERGENCE      1.0E-8
D_CONVERGENCE      1.0E-8
DIIS_MAX_VECS      400
MBIS_MAXITER       8000
guess              read
}

E, wfn = energy('b3lyp', restart_file='last_wfn', return_wfn=True)
properties('b3lyp','MBIS_CHARGES', wfn=wfn)
wfn.to_file('last_wfn')
--------------------------------------------------------------------------

    Molecular point group: c2v
  Charge       = 1
  Multiplicity = 2
  Basis Set: CC-PVTZ
    Blend: CC-PVTZ
  Basis Set: (CC-PVTZ AUX)
    Blend: CC-PVTZ-JKFIT
  @DF-UKS Final Energy:  -112.77270876929474
    Total Energy =                       -112.7727087692947379
 Dipole X            :          0.0000000            0.0000000            0.0000000
 Dipole Y            :          0.0000000            0.0000000            0.0000000
 Dipole Z            :          1.1633263           -0.0027154            1.1606108
 Magnitude           :                                                    1.1606108
    Molecular point group: c2v

    Geometry (in Angstrom), charge = 1, multiplicity = 2:

       Center              X                  Y                   Z               Mass
    ------------   -----------------  -----------------  -----------------  -----------------
         O            0.000000000000     0.000000000000    -0.565129925024    15.994914619570
         C            0.000000000000     0.000000000000     0.753267074976    12.000000000000

  Charge       = 1
  Multiplicity = 2
  Basis Set: CC-PVTZ
    Blend: CC-PVTZ
  Basis Set: (CC-PVTZ AUX)
    Blend: CC-PVTZ-JKFIT

    Orbital Energies [Eh]
    ---------------------

    Alpha Occupied:

       1A1   -19.669349     2A1   -10.840421     3A1    -1.466399
       4A1    -0.994180     5A1    -0.850021     1B2    -0.799337
       1B1    -0.799337

    Alpha Virtual:

       2B2    -0.496799     2B1    -0.496799     6A1    -0.180000
       7A1    -0.013290     3B2    -0.000864     3B1    -0.000864
       8A1     0.020291     9A1     0.246082     1A2     0.289710
      10A1     0.289710     4B1     0.319987     4B2     0.319987
       5B1     0.434643     5B2     0.434643    11A1     0.712565
      12A1     0.866024    13A1     1.129091     2A2     1.129091
       6B2     1.363499     6B1     1.363499     7B1     1.612059
       7B2     1.612059    14A1     1.636266    15A1     1.760692
       8B2     2.227420     8B1     2.227420     3A2     2.314530
      16A1     2.314530     9B1     2.457590     9B2     2.457590
       4A2     2.464882    17A1     2.464883    18A1     2.639814
      10B1     2.717888    10B2     2.717888    19A1     2.752972
      11B2     3.471254    11B1     3.471254    20A1     3.495537
      12B2     4.711594    12B1     4.711594    21A1     4.889167
       5A2     4.889169    22A1     5.110764    13B2     5.359068
      13B1     5.359068    23A1     5.812616     6A2     5.812625
      24A1     5.892404    14B1     6.261336    14B2     6.261336
      25A1     6.702131    26A1     9.281242

    Beta Occupied:

       1A1   -19.667949     2A1   -10.818512     3A1    -1.454903
       4A1    -0.933164     1B2    -0.800013     1B1    -0.800013

    Beta Virtual:

       5A1    -0.659774     2B2    -0.459642     2B1    -0.459642
       6A1    -0.145908     3B2     0.009408     3B1     0.009408
       7A1     0.012254     8A1     0.060794     9A1     0.258251
       1A2     0.309491    10A1     0.309491     4B1     0.318946
       4B2     0.318946     5B1     0.467240     5B2     0.467240
      11A1     0.752342    12A1     0.870660    13A1     1.125200
       2A2     1.125200     6B2     1.387461     6B1     1.387461
       7B1     1.630588     7B2     1.630588    14A1     1.675745
      15A1     1.813672     8B1     2.260134     8B2     2.260134
       3A2     2.345180    16A1     2.345180     9B1     2.515728
       9B2     2.515728     4A2     2.520394    17A1     2.520395
      18A1     2.712723    10B1     2.772544    10B2     2.772544
      19A1     2.815218    11B2     3.474389    11B1     3.474389
      20A1     3.531421    12B2     4.697533    12B1     4.697533
      21A1     4.892768     5A2     4.892769    22A1     5.129529
      13B2     5.377165    13B1     5.377165    23A1     5.795485
       6A2     5.795494    24A1     5.925103    14B1     6.278581
      14B2     6.278581    25A1     6.723710    26A1     9.294065

    Final Occupation by Irrep:
             A1    A2    B1    B2
    DOCC [     4,    0,    1,    1 ]
    SOCC [     1,    0,    0,    0 ]
    NA   [     5,    0,    1,    1 ]
    NB   [     4,    0,    1,    1 ]

  @DF-UKS Final Energy:  -112.77270876930584

   => Energetics <=

    Nuclear Repulsion Energy =             19.2662044226132174
    One-Electron Energy =                -186.4129229281558082
    Two-Electron Energy =                  65.1690688104359310
    DFT Exchange-Correlation Energy =     -10.7950590741991714
    Empirical Dispersion Energy =           0.0000000000000000
    VV10 Nonlocal Energy =                  0.0000000000000000
    Total Energy =                       -112.7727087693058365

  UHF NO Occupations:
  HONO-2 :    1 B1 1.9933721
  HONO-1 :    1 B2 1.9933721
  HONO-0 :    5 A1 1.0000000
  LUNO+0 :    2 B2 0.0066279
  LUNO+1 :    2 B1 0.0066279
  LUNO+2 :    6 A1 0.0014485
  LUNO+3 :    7 A1 0.0000568

Computation Completed

Properties will be evaluated at   0.000000,   0.000000,   0.000000 [a0]

Properties computed using the B3LYP density matrix

 Multipole Moments:

 ------------------------------------------------------------------------------------
     Multipole            Electronic (a.u.)      Nuclear  (a.u.)        Total (a.u.)
 ------------------------------------------------------------------------------------

 L = 1.  Multiply by 2.5417464519 to convert [e a0] to [Debye]
 Dipole X            :          0.0000000            0.0000000            0.0000000
 Dipole Y            :          0.0000000            0.0000000            0.0000000
 Dipole Z            :          1.1633263           -0.0027154            1.1606108
 Magnitude           :                                                    1.1606108

 L = 2.  Multiply by 1.3450342976 to convert [e a0^2] to [Debye ang]
 Quadrupole XX       :         -6.2889630            0.0000000           -6.2889630
 Quadrupole XY       :          0.0000000            0.0000000            0.0000000
 Quadrupole XZ       :          0.0000000            0.0000000            0.0000000
 Quadrupole YY       :         -6.2889630            0.0000000           -6.2889630
 Quadrupole YZ       :          0.0000000            0.0000000            0.0000000
 Quadrupole ZZ       :        -24.6318002           21.2815551           -3.3502452
 Traceless XX        :          6.1142791           -7.0938517           -0.9795726
 Traceless YY        :          6.1142791           -7.0938517           -0.9795726
 Traceless ZZ        :        -12.2285582           14.1877034            1.9591452

 ------------------------------------------------------------------------------------
  ==> Computing MBIS Charges <==

  Electron Count from Grid (Expected Number): 13.00000 (13.00000)
  Difference: -0.00000

  MBIS Charges: (a.u.)
   Center  Symbol  Z      Pop.       Charge
      1       O    8    7.960812    0.039188
      2       C    6    5.039187    0.960813

  MBIS Dipoles: [e a0]
   Center  Symbol  Z        X           Y           Z
      1       O    8    0.000000    0.000000   -0.324687
      2       C    6    0.000000    0.000000    0.159461

  MBIS Quadrupoles: [e a0^2]
   Center  Symbol  Z      XX        XY        XZ        YY        YZ        ZZ
      1       O    8   -3.5655   -0.0000   -0.0000   -3.5655    0.0000   -3.6049
      2       C    6   -2.7234   -0.0000    0.0000   -2.7234    0.0000   -2.8844

  MBIS Octupoles: [e a0^3]
   Center  Symbol  Z      XXX       XXY       XXZ       XYY       XYZ       XZZ       YYY       YYZ       YZZ       ZZZ
      1       O    8   -0.0000    0.0000   -0.3068   -0.0000   -0.0000   -0.0000   -0.0000   -0.3068   -0.0000   -0.8351
      2       C    6    0.0000    0.0000    0.2609    0.0000    0.0000    0.0000    0.0000    0.2609    0.0000    0.4503

  MBIS Radial Moments:
   Center  Symbol  Z      [a0^2]      [a0^3]      [a0^4]
      1       O    8   10.735931   19.446700   42.059977
      2       C    6    8.331261   17.650460   44.482992

  MBIS Valence Widths: [a0]
   Center  Symbol  Z     Width
      1       O    8    0.378522
      2       C    6    0.457765

*** tstop() called on Mac.lan at Sun Aug 10 18:38:08 2025
Module time:
	user time   =      11.13 seconds =       0.19 minutes
	system time =       2.43 seconds =       0.04 minutes
	total time  =          1 seconds =       0.02 minutes
Total time:
	user time   =      28.47 seconds =       0.47 minutes
	system time =       4.59 seconds =       0.08 minutes
	total time  =          3 seconds =       0.05 minutes

    Psi4 stopped on: Sunday, 10 August 2025 06:38PM
    Psi4 wall time for execution: 0:00:03.29

*** Psi4 exiting successfully. Buy a developer a beer!
