                               Psi4 1.9.1 release

  ==> Input File <==

--------------------------------------------------------------------------
molecule {
1 2
H           0.000000           0.000000           0.000000
H           0.000000           0.000000           1.588828
}

set {
basis              cc-pvtz
reference          uks
maxiter            500
DAMPING_PERCENTAGE 1
E_CONVERGENCE      1.0E-8
D_CONVERGENCE      1.0E-8
DIIS_MAX_VECS      400
MBIS_MAXITER       8000
guess              read
}

E, wfn = energy('b3lyp', restart_file='last_wfn', return_wfn=True)
properties('b3lyp','MBIS_CHARGES', wfn=wfn)
wfn.to_file('last_wfn')
--------------------------------------------------------------------------

    Molecular point group: d2h
  Charge       = 1
  Multiplicity = 2
  Basis Set: CC-PVTZ
    Blend: CC-PVTZ
  Basis Set: (CC-PVTZ AUX)
    Blend: CC-PVTZ-JKFIT
  @DF-UKS Final Energy:    -0.59502273738996
    Total Energy =                         -0.5950227373899623
 Dipole X            :          0.0000000            0.0000000            0.0000000
 Dipole Y            :          0.0000000            0.0000000            0.0000000
 Dipole Z            :          0.0000000            0.0000000            0.0000000
 Magnitude           :                                                    0.0000000
    Molecular point group: d2h

    Geometry (in Angstrom), charge = 1, multiplicity = 2:

       Center              X                  Y                   Z               Mass
    ------------   -----------------  -----------------  -----------------  -----------------
         H            0.000000000000     0.000000000000    -0.794414000000     1.007825032230
         H            0.000000000000     0.000000000000     0.794414000000     1.007825032230

  Charge       = 1
  Multiplicity = 2
  Basis Set: CC-PVTZ
    Blend: CC-PVTZ
  Basis Set: (CC-PVTZ AUX)
    Blend: CC-PVTZ-JKFIT

    Orbital Energies [Eh]
    ---------------------

    Alpha Occupied:

       1Ag    -0.774583

    Alpha Virtual:

       1B1u   -0.522819     2Ag    -0.044674     2B1u    0.011550
       1B3u    0.122388     1B2u    0.122388     3Ag     0.197628
       1B2g    0.367645     1B3g    0.367645     3B1u    0.739462
       4Ag     1.709872     4B1u    1.896562     5Ag     2.428921
       2B3u    2.497213     2B2u    2.497213     1B1g    2.705201
       6Ag     2.705202     1Au     2.788954     5B1u    2.788954
       2B2g    2.952229     2B3g    2.952229     3B2u    3.078376
       3B3u    3.078376     6B1u    3.129656     3B2g    3.294746
       3B3g    3.294746     7Ag     3.384319     7B1u    4.147267

    Beta Occupied:

    Beta Virtual:

       1Ag    -0.479304     1B1u   -0.302596     2Ag     0.050386
       2B1u    0.115917     1B3u    0.253376     1B2u    0.253376
       3Ag     0.351017     1B2g    0.492320     1B3g    0.492320
       3B1u    0.870766     4Ag     2.019977     4B1u    2.189808
       5Ag     2.627659     2B3u    2.685977     2B2u    2.685977
       6Ag     2.888616     1B1g    2.888620     5B1u    2.972373
       1Au     2.972378     2B2g    3.171987     2B3g    3.171987
       3B3u    3.330924     3B2u    3.330924     6B1u    3.389179
       3B2g    3.516677     3B3g    3.516677     7Ag     3.636285
       7B1u    4.355488

    Final Occupation by Irrep:
             Ag   B1g   B2g   B3g    Au   B1u   B2u   B3u
    DOCC [     0,    0,    0,    0,    0,    0,    0,    0 ]
    SOCC [     1,    0,    0,    0,    0,    0,    0,    0 ]
    NA   [     1,    0,    0,    0,    0,    0,    0,    0 ]
    NB   [     0,    0,    0,    0,    0,    0,    0,    0 ]

  @DF-UKS Final Energy:    -0.59502273736756

   => Energetics <=

    Nuclear Repulsion Energy =              0.3330613575981793
    One-Electron Energy =                  -0.9076007830577042
    Two-Electron Energy =                   0.2155282856771398
    DFT Exchange-Correlation Energy =      -0.2360115975851745
    Empirical Dispersion Energy =           0.0000000000000000
    VV10 Nonlocal Energy =                  0.0000000000000000
    Total Energy =                         -0.5950227373675596

  UHF NO Occupations:
  HONO-0 :    1 Ag 1.0000000
  LUNO+0 :    2 Ag 0.0000000
  LUNO+1 :    3 Ag 0.0000000
  LUNO+2 :    4 Ag 0.0000000
  LUNO+3 :    3B3u 0.0000000

Computation Completed

Properties will be evaluated at   0.000000,   0.000000,   0.000000 [a0]

Properties computed using the B3LYP density matrix

 Multipole Moments:

 ------------------------------------------------------------------------------------
     Multipole            Electronic (a.u.)      Nuclear  (a.u.)        Total (a.u.)
 ------------------------------------------------------------------------------------

 L = 1.  Multiply by 2.5417464519 to convert [e a0] to [Debye]
 Dipole X            :          0.0000000            0.0000000            0.0000000
 Dipole Y            :          0.0000000            0.0000000            0.0000000
 Dipole Z            :          0.0000000            0.0000000            0.0000000
 Magnitude           :                                                    0.0000000

 L = 2.  Multiply by 1.3450342976 to convert [e a0^2] to [Debye ang]
 Quadrupole XX       :         -0.7747510            0.0000000           -0.7747510
 Quadrupole XY       :          0.0000000            0.0000000            0.0000000
 Quadrupole XZ       :          0.0000000            0.0000000            0.0000000
 Quadrupole YY       :         -0.7747510            0.0000000           -0.7747510
 Quadrupole YZ       :          0.0000000            0.0000000            0.0000000
 Quadrupole ZZ       :         -2.2754249            4.5073523            2.2319275
 Traceless XX        :          0.5002246           -1.5024508           -1.0022261
 Traceless YY        :          0.5002246           -1.5024508           -1.0022261
 Traceless ZZ        :         -1.0004493            3.0049016            2.0044523

 ------------------------------------------------------------------------------------
  ==> Computing MBIS Charges <==

  Electron Count from Grid (Expected Number):  1.00000 ( 1.00000)
  Difference: -0.00000

  MBIS Charges: (a.u.)
   Center  Symbol  Z      Pop.       Charge
      1       H    1    0.500000    0.500000
      2       H    1    0.500000    0.500000

  MBIS Dipoles: [e a0]
   Center  Symbol  Z        X           Y           Z
      1       H    1    0.000000    0.000000   -0.135557
      2       H    1    0.000000   -0.000000    0.135557

  MBIS Quadrupoles: [e a0^2]
   Center  Symbol  Z      XX        XY        XZ        YY        YZ        ZZ
      1       H    1   -0.3874   -0.0000   -0.0000   -0.3874    0.0000   -0.4179
      2       H    1   -0.3874   -0.0000    0.0000   -0.3874   -0.0000   -0.4179

  MBIS Octupoles: [e a0^3]
   Center  Symbol  Z      XXX       XXY       XXZ       XYY       XYZ       XZZ       YYY       YYZ       YZZ       ZZZ
      1       H    1    0.0000   -0.0000   -0.1159   -0.0000    0.0000    0.0000    0.0000   -0.1159   -0.0000   -0.2890
      2       H    1    0.0000   -0.0000    0.1159    0.0000   -0.0000    0.0000    0.0000    0.1159    0.0000    0.2890

  MBIS Radial Moments:
   Center  Symbol  Z      [a0^2]      [a0^3]      [a0^4]
      1       H    1    1.192628    2.558171    6.499981
      2       H    1    1.192628    2.558171    6.499981

  MBIS Valence Widths: [a0]
   Center  Symbol  Z     Width
      1       H    1    0.452837
      2       H    1    0.452837

*** tstop() called on Mac.lan at Sun Aug 10 18:11:56 2025
Module time:
	user time   =       0.61 seconds =       0.01 minutes
	system time =       1.13 seconds =       0.02 minutes
	total time  =          0 seconds =       0.00 minutes
Total time:
	user time   =       1.27 seconds =       0.02 minutes
	system time =       3.29 seconds =       0.05 minutes
	total time  =          1 seconds =       0.02 minutes

    Psi4 stopped on: Sunday, 10 August 2025 06:11PM
    Psi4 wall time for execution: 0:00:00.60

*** Psi4 exiting successfully. Buy a developer a beer!
