                               Psi4 1.9.1 release

  ==> Input File <==

--------------------------------------------------------------------------
molecule {
1 2
O           0.000000           0.000000           0.000000
C           0.000000           0.000000           1.073746
}

set {
basis              cc-pvtz
reference          uks
maxiter            500
DAMPING_PERCENTAGE 1
E_CONVERGENCE      1.0E-8
D_CONVERGENCE      1.0E-8
DIIS_MAX_VECS      400
MBIS_MAXITER       8000
guess              read
}

E, wfn = energy('b3lyp', restart_file='last_wfn', return_wfn=True)
properties('b3lyp','MBIS_CHARGES', wfn=wfn)
wfn.to_file('last_wfn')
--------------------------------------------------------------------------

    Molecular point group: c2v
  Charge       = 1
  Multiplicity = 2
  Basis Set: CC-PVTZ
    Blend: CC-PVTZ
  Basis Set: (CC-PVTZ AUX)
    Blend: CC-PVTZ-JKFIT
  @DF-UKS Final Energy:  -112.83375801762094
    Total Energy =                       -112.8337580176209372
 Dipole X            :          0.0000000            0.0000000            0.0000000
 Dipole Y            :          0.0000000            0.0000000            0.0000000
 Dipole Z            :          1.0553105           -0.0022115            1.0530990
 Magnitude           :                                                    1.0530990
    Molecular point group: c2v

    Geometry (in Angstrom), charge = 1, multiplicity = 2:

       Center              X                  Y                   Z               Mass
    ------------   -----------------  -----------------  -----------------  -----------------
         O            0.000000000000     0.000000000000    -0.460260449982    15.994914619570
         C            0.000000000000     0.000000000000     0.613485550018    12.000000000000

  Charge       = 1
  Multiplicity = 2
  Basis Set: CC-PVTZ
    Blend: CC-PVTZ
  Basis Set: (CC-PVTZ AUX)
    Blend: CC-PVTZ-JKFIT

    Orbital Energies [Eh]
    ---------------------

    Alpha Occupied:

       1A1   -19.649146     2A1   -10.785866     3A1    -1.598175
       4A1    -0.962714     1B2    -0.882727     1B1    -0.882727
       5A1    -0.867908

    Alpha Virtual:

       2B2    -0.416051     2B1    -0.416051     6A1    -0.115125
       7A1    -0.022473     3B2    -0.012813     3B1    -0.012813
       8A1     0.223935     9A1     0.276355     1A2     0.276355
      10A1     0.292182     4B2     0.329682     4B1     0.329682
       5B2     0.502870     5B1     0.502870    11A1     0.804187
      12A1     0.985851     2A2     1.166774    13A1     1.166774
       6B2     1.495178     6B1     1.495178    14A1     1.500730
       7B1     1.606785     7B2     1.606785    15A1     2.093038
       8B1     2.216647     8B2     2.216647    16A1     2.427697
       3A2     2.427697    17A1     2.471975     4A2     2.471976
       9B2     2.487180     9B1     2.487180    18A1     2.642257
      10B1     2.871153    10B2     2.871153    19A1     2.990627
      11B2     3.727222    11B1     3.727222    20A1     4.202080
      12B1     4.717349    12B2     4.717349     5A2     5.174221
      21A1     5.174222    22A1     5.752456    23A1     5.858202
       6A2     5.858204    13B2     5.972150    13B1     5.972150
      14B1     6.346919    14B2     6.346919    24A1     6.429380
      25A1     6.834049    26A1    12.588110

    Beta Occupied:

       1A1   -19.649897     2A1   -10.760757     3A1    -1.590481
       4A1    -0.934244     1B2    -0.877683     1B1    -0.877683

    Beta Virtual:

       5A1    -0.645906     2B2    -0.373564     2B1    -0.373564
       6A1    -0.100256     3B2    -0.002038     3B1    -0.002038
       7A1     0.018089     8A1     0.255339     1A2     0.296853
       9A1     0.296853    10A1     0.319631     4B2     0.327520
       4B1     0.327520     5B2     0.540027     5B1     0.540027
      11A1     0.810631    12A1     1.022843     2A2     1.167032
      13A1     1.167033     6B2     1.523267     6B1     1.523267
      14A1     1.557371     7B1     1.616571     7B2     1.616571
      15A1     2.138589     8B1     2.252350     8B2     2.252350
      16A1     2.447570     3A2     2.447570     4A2     2.550055
      17A1     2.550055     9B2     2.591946     9B1     2.591946
      18A1     2.721055    10B1     2.894311    10B2     2.894311
      19A1     3.061076    11B2     3.739767    11B1     3.739767
      20A1     4.226493    12B1     4.708145    12B2     4.708145
       5A2     5.175860    21A1     5.175861    22A1     5.772530
      23A1     5.846391     6A2     5.846393    13B2     5.985068
      13B1     5.985068    14B1     6.355748    14B2     6.355748
      24A1     6.438392    25A1     6.846974    26A1    12.612093

    Final Occupation by Irrep:
             A1    A2    B1    B2
    DOCC [     4,    0,    1,    1 ]
    SOCC [     1,    0,    0,    0 ]
    NA   [     5,    0,    1,    1 ]
    NB   [     4,    0,    1,    1 ]

  @DF-UKS Final Energy:  -112.83375801890632

   => Energetics <=

    Nuclear Repulsion Energy =             23.6559727460311819
    One-Electron Energy =                -194.7583389078854168
    Two-Electron Energy =                  69.2542689595311458
    DFT Exchange-Correlation Energy =     -10.9856608165832377
    Empirical Dispersion Energy =           0.0000000000000000
    VV10 Nonlocal Energy =                  0.0000000000000000
    Total Energy =                       -112.8337580189063232

  UHF NO Occupations:
  HONO-2 :    1 B1 1.9970047
  HONO-1 :    1 B2 1.9970047
  HONO-0 :    5 A1 1.0000000
  LUNO+0 :    2 B2 0.0029953
  LUNO+1 :    2 B1 0.0029953
  LUNO+2 :    6 A1 0.0001845
  LUNO+3 :    7 A1 0.0000176

Computation Completed

Properties will be evaluated at   0.000000,   0.000000,   0.000000 [a0]

Properties computed using the B3LYP density matrix

 Multipole Moments:

 ------------------------------------------------------------------------------------
     Multipole            Electronic (a.u.)      Nuclear  (a.u.)        Total (a.u.)
 ------------------------------------------------------------------------------------

 L = 1.  Multiply by 2.5417464519 to convert [e a0] to [Debye]
 Dipole X            :          0.0000000            0.0000000            0.0000000
 Dipole Y            :          0.0000000            0.0000000            0.0000000
 Dipole Z            :          1.0553105           -0.0022115            1.0530990
 Magnitude           :                                                    1.0530990

 L = 2.  Multiply by 1.3450342976 to convert [e a0^2] to [Debye ang]
 Quadrupole XX       :         -5.8390395            0.0000000           -5.8390395
 Quadrupole XY       :          0.0000000            0.0000000            0.0000000
 Quadrupole XZ       :          0.0000000            0.0000000            0.0000000
 Quadrupole YY       :         -5.8390395            0.0000000           -5.8390395
 Quadrupole YZ       :          0.0000000            0.0000000            0.0000000
 Quadrupole ZZ       :        -18.2438091           14.1160785           -4.1277306
 Traceless XX        :          4.1349232           -4.7053595           -0.5704363
 Traceless YY        :          4.1349232           -4.7053595           -0.5704363
 Traceless ZZ        :         -8.2698464            9.4107190            1.1408726

 ------------------------------------------------------------------------------------
  ==> Computing MBIS Charges <==

  Electron Count from Grid (Expected Number): 13.00000 (13.00000)
  Difference:  0.00000

  MBIS Charges: (a.u.)
   Center  Symbol  Z      Pop.       Charge
      1       O    8    8.023360   -0.023360
      2       C    6    4.976640    1.023360

  MBIS Dipoles: [e a0]
   Center  Symbol  Z        X           Y           Z
      1       O    8   -0.000000   -0.000000   -0.272879
      2       C    6   -0.000000    0.000000    0.119259

  MBIS Quadrupoles: [e a0^2]
   Center  Symbol  Z      XX        XY        XZ        YY        YZ        ZZ
      1       O    8   -3.3828   -0.0000    0.0000   -3.3828    0.0000   -3.5889
      2       C    6   -2.4562   -0.0000    0.0000   -2.4562    0.0000   -2.6478

  MBIS Octupoles: [e a0^3]
   Center  Symbol  Z      XXX       XXY       XXZ       XYY       XYZ       XZZ       YYY       YYZ       YZZ       ZZZ
      1       O    8   -0.0000   -0.0000   -0.2278   -0.0000   -0.0000   -0.0000   -0.0000   -0.2278   -0.0000   -0.4899
      2       C    6    0.0000   -0.0000    0.1169    0.0000    0.0000   -0.0000    0.0000    0.1169    0.0000    0.0965

  MBIS Radial Moments:
   Center  Symbol  Z      [a0^2]      [a0^3]      [a0^4]
      1       O    8   10.354507   18.234195   38.357545
      2       C    6    7.560249   15.412543   37.458817

  MBIS Valence Widths: [a0]
   Center  Symbol  Z     Width
      1       O    8    0.369614
      2       C    6    0.437823

*** tstop() called on Mac.lan at Sun Aug 10 18:36:22 2025
Module time:
	user time   =      24.53 seconds =       0.41 minutes
	system time =       2.62 seconds =       0.04 minutes
	total time  =          3 seconds =       0.05 minutes
Total time:
	user time   =      61.74 seconds =       1.03 minutes
	system time =       4.20 seconds =       0.07 minutes
	total time  =          7 seconds =       0.12 minutes

    Psi4 stopped on: Sunday, 10 August 2025 06:36PM
    Psi4 wall time for execution: 0:00:06.96

*** Psi4 exiting successfully. Buy a developer a beer!
