                               Psi4 1.9.1 release

  ==> Input File <==

--------------------------------------------------------------------------
molecule {
1 2
O           0.000000           0.000000           0.000000
O           0.000000           0.000000           1.151469
}

set {
basis              cc-pvtz
reference          uks
maxiter            500
DAMPING_PERCENTAGE 1
E_CONVERGENCE      1.0E-8
D_CONVERGENCE      1.0E-8
DIIS_MAX_VECS      400
MBIS_MAXITER       8000
guess              SAP
}

E, wfn = energy('b3lyp', return_wfn=True)
properties('b3lyp','MBIS_CHARGES', wfn=wfn)
wfn.to_file('last_wfn')
--------------------------------------------------------------------------

    Molecular point group: d2h
  Charge       = 1
  Multiplicity = 2
  Basis Set: CC-PVTZ
    Blend: CC-PVTZ
  Basis Set: (CC-PVTZ AUX)
    Blend: CC-PVTZ-JKFIT
  @DF-UKS Final Energy:  -149.91831585318167
    Total Energy =                       -149.9183158531816673
 Dipole X            :          0.0000000            0.0000000            0.0000000
 Dipole Y            :          0.0000000            0.0000000            0.0000000
 Dipole Z            :          0.0000000            0.0000000            0.0000000
 Magnitude           :                                                    0.0000000
    Molecular point group: d2h

    Geometry (in Angstrom), charge = 1, multiplicity = 2:

       Center              X                  Y                   Z               Mass
    ------------   -----------------  -----------------  -----------------  -----------------
         O            0.000000000000     0.000000000000    -0.575734500000    15.994914619570
         O            0.000000000000     0.000000000000     0.575734500000    15.994914619570

  Charge       = 1
  Multiplicity = 2
  Basis Set: CC-PVTZ
    Blend: CC-PVTZ
  Basis Set: (CC-PVTZ AUX)
    Blend: CC-PVTZ-JKFIT

    Orbital Energies [Eh]
    ---------------------

    Alpha Occupied:

       1Ag   -19.821123     1B1u  -19.820719     2Ag    -1.829854
       2B1u   -1.263778     1B3u   -1.044541     3Ag    -1.012785
       1B2u   -1.006234     1B2g   -0.750899

    Alpha Virtual:

       1B3g   -0.624257     3B1u   -0.170398     2B3u    0.144310
       2B2u    0.146802     4B1u    0.161468     4Ag     0.212816
       5Ag     0.266975     2B2g    0.285809     2B3g    0.293572
       1B1g    0.774200     6Ag     0.775473     5B1u    0.840524
       3B2u    0.893862     3B3u    0.895211     1Au     1.219684
       6B1u    1.221352     7Ag     1.729646     7B1u    1.744050
       3B2g    1.790661     3B3g    1.792735     4B3u    2.936609
       4B2u    2.954093     8Ag     3.133945     4B2g    3.246245
       4B3g    3.260020     2B1g    4.072756     9Ag     4.074041
       5B2u    4.188195     5B3u    4.194140     8B1u    4.255988
       6B3u    4.398439     6B2u    4.398727    10Ag     4.481703
       5B2g    4.707817     5B3g    4.708118     9B1u    5.188880
       2Au     5.322816    10B1u    5.325140     3B1g    5.520609
      11Ag     5.524756     3Au     5.768550    11B1u    5.772152
       6B2g    5.834952     6B3g    5.844997     7B3u    5.972072
       7B2u    5.978002    12B1u    6.331871    12Ag     6.561553
       7B3g    6.896591     7B2g    6.900249    13Ag     7.088961
      13B1u   13.010421

    Beta Occupied:

       1Ag   -19.804582     1B1u  -19.804091     2Ag    -1.801912
       2B1u   -1.217000     1B2u   -0.992426     3Ag    -0.990931
       1B3u   -0.947603

    Beta Virtual:

       1B3g   -0.606330     1B2g   -0.557407     3B1u   -0.147439
       2B2u    0.150914     4B1u    0.168728     2B3u    0.170959
       4Ag     0.215207     5Ag     0.279277     2B3g    0.298453
       2B2g    0.317091     1B1g    0.795964     6Ag     0.796097
       5B1u    0.855888     3B2u    0.896023     3B3u    0.924608
       1Au     1.252085     6B1u    1.252116     7Ag     1.745500
       7B1u    1.754279     3B3g    1.796867     3B2g    1.823137
       4B2u    2.965456     4B3u    3.004575     8Ag     3.145044
       4B3g    3.272286     4B2g    3.313809     9Ag     4.093264
       2B1g    4.093420     5B2u    4.191725     5B3u    4.223102
       8B1u    4.274497     6B2u    4.435548     6B3u    4.435625
      10Ag     4.498426     5B3g    4.747279     5B2g    4.747298
       9B1u    5.209447     2Au     5.356848    10B1u    5.357139
      11Ag     5.580753     3B1g    5.580799     3Au     5.821356
      11B1u    5.821926     6B3g    5.851985     6B2g    5.890377
       7B2u    5.984309     7B3u    6.023581    12B1u    6.348826
      12Ag     6.587859     7B3g    6.900517     7B2g    6.933425
      13Ag     7.106775    13B1u   13.033675

    Final Occupation by Irrep:
             Ag   B1g   B2g   B3g    Au   B1u   B2u   B3u
    DOCC [     3,    0,    0,    0,    0,    2,    1,    1 ]
    SOCC [     0,    0,    1,    0,    0,    0,    0,    0 ]
    NA   [     3,    0,    1,    0,    0,    2,    1,    1 ]
    NB   [     3,    0,    0,    0,    0,    2,    1,    1 ]

  @DF-UKS Final Energy:  -149.91831585318167

   => Energetics <=

    Nuclear Repulsion Energy =             29.4122911540649383
    One-Electron Energy =                -256.9225650061740112
    Two-Electron Energy =                  90.9941980297371913
    DFT Exchange-Correlation Energy =     -13.4022400308098035
    Empirical Dispersion Energy =           0.0000000000000000
    VV10 Nonlocal Energy =                  0.0000000000000000
    Total Energy =                       -149.9183158531816673

  UHF NO Occupations:
  HONO-2 :    2B1u 1.9997159
  HONO-1 :    1B3u 1.9990911
  HONO-0 :    1B2g 1.0000000
  LUNO+0 :    2B3u 0.0009089
  LUNO+1 :    3B1u 0.0002841
  LUNO+2 :    4 Ag 0.0001437
  LUNO+3 :    2B2u 0.0000318

Computation Completed

Properties will be evaluated at   0.000000,   0.000000,   0.000000 [a0]

Properties computed using the B3LYP density matrix

 Multipole Moments:

 ------------------------------------------------------------------------------------
     Multipole            Electronic (a.u.)      Nuclear  (a.u.)        Total (a.u.)
 ------------------------------------------------------------------------------------

 L = 1.  Multiply by 2.5417464519 to convert [e a0] to [Debye]
 Dipole X            :          0.0000000            0.0000000            0.0000000
 Dipole Y            :          0.0000000            0.0000000            0.0000000
 Dipole Z            :          0.0000000            0.0000000            0.0000000
 Magnitude           :                                                    0.0000000

 L = 2.  Multiply by 1.3450342976 to convert [e a0^2] to [Debye ang]
 Quadrupole XX       :         -6.2005307            0.0000000           -6.2005307
 Quadrupole XY       :          0.0000000            0.0000000            0.0000000
 Quadrupole XZ       :          0.0000000            0.0000000            0.0000000
 Quadrupole YY       :         -5.6558885            0.0000000           -5.6558885
 Quadrupole YZ       :          0.0000000            0.0000000            0.0000000
 Quadrupole ZZ       :        -23.8382466           18.9392260           -4.8990206
 Traceless XX        :          5.6976912           -6.3130753           -0.6153841
 Traceless YY        :          6.2423334           -6.3130753           -0.0707419
 Traceless ZZ        :        -11.9400246           12.6261507            0.6861260

 ------------------------------------------------------------------------------------
  ==> Computing MBIS Charges <==

  Electron Count from Grid (Expected Number): 15.00000 (15.00000)
  Difference:  0.00000

  MBIS Charges: (a.u.)
   Center  Symbol  Z      Pop.       Charge
      1       O    8    7.500001    0.499999
      2       O    8    7.500001    0.499999

  MBIS Dipoles: [e a0]
   Center  Symbol  Z        X           Y           Z
      1       O    8    0.000000   -0.000000   -0.012710
      2       O    8    0.000000    0.000000    0.012710

  MBIS Quadrupoles: [e a0^2]
   Center  Symbol  Z      XX        XY        XZ        YY        YZ        ZZ
      1       O    8   -3.1003   -0.0000    0.0000   -2.8279   -0.0000   -3.0690
      2       O    8   -3.1003   -0.0000   -0.0000   -2.8279    0.0000   -3.0690

  MBIS Octupoles: [e a0^3]
   Center  Symbol  Z      XXX       XXY       XXZ       XYY       XYZ       XZZ       YYY       YYZ       YZZ       ZZZ
      1       O    8    0.0000   -0.0000    0.0126    0.0000   -0.0000   -0.0000   -0.0000   -0.0590    0.0000   -0.2234
      2       O    8    0.0000   -0.0000   -0.0126    0.0000    0.0000   -0.0000    0.0000    0.0590   -0.0000    0.2234

  MBIS Radial Moments:
   Center  Symbol  Z      [a0^2]      [a0^3]      [a0^4]
      1       O    8    8.997227   15.453537   31.845702
      2       O    8    8.997227   15.453537   31.845702

  MBIS Valence Widths: [a0]
   Center  Symbol  Z     Width
      1       O    8    0.359038
      2       O    8    0.359038

*** tstop() called on Mac.lan at Sun Aug 10 18:13:25 2025
Module time:
	user time   =      14.85 seconds =       0.25 minutes
	system time =       1.40 seconds =       0.02 minutes
	total time  =          1 seconds =       0.02 minutes
Total time:
	user time   =      29.16 seconds =       0.49 minutes
	system time =       3.55 seconds =       0.06 minutes
	total time  =          3 seconds =       0.05 minutes

    Psi4 stopped on: Sunday, 10 August 2025 06:13PM
    Psi4 wall time for execution: 0:00:03.12

*** Psi4 exiting successfully. Buy a developer a beer!
