                               Psi4 1.9.1 release

  ==> Input File <==

--------------------------------------------------------------------------
molecule {
1 1
C           0.000000           0.000000           0.000000
H           0.000000           0.000000           0.869935
}

set {
basis              cc-pvtz
reference          uks
maxiter            500
DAMPING_PERCENTAGE 1
E_CONVERGENCE      1.0E-8
D_CONVERGENCE      1.0E-8
DIIS_MAX_VECS      400
MBIS_MAXITER       8000
guess              read
}

E, wfn = energy('b3lyp', restart_file='last_wfn', return_wfn=True)
properties('b3lyp','MBIS_CHARGES', wfn=wfn)
wfn.to_file('last_wfn')
--------------------------------------------------------------------------

    Molecular point group: c2v
  Charge       = 1
  Multiplicity = 1
  Basis Set: CC-PVTZ
    Blend: CC-PVTZ
  Basis Set: (CC-PVTZ AUX)
    Blend: CC-PVTZ-JKFIT
  @DF-UKS Final Energy:   -38.03127051635024
    Total Energy =                        -38.0312705163502400
 Dipole X            :          0.0000000            0.0000000            0.0000000
 Dipole Y            :          0.0000000            0.0000000            0.0000000
 Dipole Z            :         -0.0466264            0.7523510            0.7057246
 Magnitude           :                                                    0.7057246
    Molecular point group: c2v

    Geometry (in Angstrom), charge = 1, multiplicity = 1:

       Center              X                  Y                   Z               Mass
    ------------   -----------------  -----------------  -----------------  -----------------
         C            0.000000000000     0.000000000000    -0.067401142562    12.000000000000
         H            0.000000000000     0.000000000000     0.802533857438     1.007825032230

  Charge       = 1
  Multiplicity = 1
  Basis Set: CC-PVTZ
    Blend: CC-PVTZ
  Basis Set: (CC-PVTZ AUX)
    Blend: CC-PVTZ-JKFIT

    Orbital Energies [Eh]
    ---------------------

    Alpha Occupied:

       1A1   -10.791407     2A1    -1.148299     3A1    -0.739654

    Alpha Virtual:

       1B1    -0.558859     1B2    -0.558859     4A1    -0.179241
       2B2     0.005138     2B1     0.005138     5A1     0.008373
       6A1     0.041918     7A1     0.238548     3B1     0.251721
       3B2     0.251721     1A2     0.309562     8A1     0.309562
       9A1     0.670416     4B2     0.753937     4B1     0.753937
      10A1     1.378879    11A1     1.514503     5B1     1.531698
       5B2     1.531698    12A1     1.759180     2A2     2.139138
      13A1     2.139138     6B1     2.238003     6B2     2.238003
       7B1     2.258989     7B2     2.258989     3A2     2.473387
      14A1     2.473388    15A1     2.609537     8B2     2.629329
       8B1     2.629329    16A1     3.282802     4A2     3.452306
      17A1     3.452306     9B2     3.569037     9B1     3.569037
      18A1     4.900783    10B2     4.923801    10B1     4.923801
      19A1     5.129191    20A1    11.042641

    Beta Occupied:

       1A1   -10.791407     2A1    -1.148299     3A1    -0.739654

    Beta Virtual:

       1B1    -0.558859     1B2    -0.558859     4A1    -0.179241
       2B2     0.005138     2B1     0.005138     5A1     0.008373
       6A1     0.041918     7A1     0.238548     3B1     0.251721
       3B2     0.251721     1A2     0.309562     8A1     0.309562
       9A1     0.670416     4B2     0.753937     4B1     0.753937
      10A1     1.378879    11A1     1.514503     5B1     1.531698
       5B2     1.531698    12A1     1.759180     2A2     2.139138
      13A1     2.139138     6B1     2.238003     6B2     2.238003
       7B1     2.258989     7B2     2.258989     3A2     2.473387
      14A1     2.473388    15A1     2.609537     8B2     2.629329
       8B1     2.629329    16A1     3.282802     4A2     3.452306
      17A1     3.452306     9B2     3.569037     9B1     3.569037
      18A1     4.900783    10B2     4.923801    10B1     4.923801
      19A1     5.129191    20A1    11.042641

    Final Occupation by Irrep:
             A1    A2    B1    B2
    DOCC [     3,    0,    0,    0 ]
    SOCC [     0,    0,    0,    0 ]
    NA   [     3,    0,    0,    0 ]
    NB   [     3,    0,    0,    0 ]

  @DF-UKS Final Energy:   -38.03127051628786

   => Energetics <=

    Nuclear Repulsion Energy =              3.6497706886376573
    One-Electron Energy =                 -54.8559482581310220
    Two-Electron Energy =                  17.5300645599822964
    DFT Exchange-Correlation Energy =      -4.3551575067767976
    Empirical Dispersion Energy =           0.0000000000000000
    VV10 Nonlocal Energy =                  0.0000000000000000
    Total Energy =                        -38.0312705162878686

  UHF NO Occupations:
  HONO-2 :    1 A1 2.0000000
  HONO-1 :    2 A1 2.0000000
  HONO-0 :    3 A1 2.0000000
  LUNO+0 :    4 A1 0.0000000
  LUNO+1 :    5 A1 0.0000000
  LUNO+2 :    6 A1 0.0000000
  LUNO+3 :    7 A1 0.0000000

Computation Completed

Properties will be evaluated at   0.000000,   0.000000,   0.000000 [a0]

Properties computed using the B3LYP density matrix

 Multipole Moments:

 ------------------------------------------------------------------------------------
     Multipole            Electronic (a.u.)      Nuclear  (a.u.)        Total (a.u.)
 ------------------------------------------------------------------------------------

 L = 1.  Multiply by 2.5417464519 to convert [e a0] to [Debye]
 Dipole X            :          0.0000000            0.0000000            0.0000000
 Dipole Y            :          0.0000000            0.0000000            0.0000000
 Dipole Z            :         -0.0466264            0.7523510            0.7057246
 Magnitude           :                                                    0.7057246

 L = 2.  Multiply by 1.3450342976 to convert [e a0^2] to [Debye ang]
 Quadrupole XX       :         -2.7357795            0.0000000           -2.7357795
 Quadrupole XY       :          0.0000000            0.0000000            0.0000000
 Quadrupole XZ       :          0.0000000            0.0000000            0.0000000
 Quadrupole YY       :         -2.7357795            0.0000000           -2.7357795
 Quadrupole YZ       :          0.0000000            0.0000000            0.0000000
 Quadrupole ZZ       :         -5.8878207            2.3973204           -3.4905003
 Traceless XX        :          1.0506804           -0.7991068            0.2515736
 Traceless YY        :          1.0506804           -0.7991068            0.2515736
 Traceless ZZ        :         -2.1013608            1.5982136           -0.5031472

 ------------------------------------------------------------------------------------
  ==> Computing MBIS Charges <==

  Electron Count from Grid (Expected Number):  6.00000 ( 6.00000)
  Difference:  0.00000

  MBIS Charges: (a.u.)
   Center  Symbol  Z      Pop.       Charge
      1       C    6    5.152651    0.847349
      2       H    1    0.847349    0.152651

  MBIS Dipoles: [e a0]
   Center  Symbol  Z        X           Y           Z
      1       C    6   -0.000000    0.000000    0.523522
      2       H    1   -0.000000    0.000000    0.058623

  MBIS Quadrupoles: [e a0^2]
   Center  Symbol  Z      XX        XY        XZ        YY        YZ        ZZ
      1       C    6   -2.4460    0.0000   -0.0000   -2.4460   -0.0000   -3.6050
      2       H    1   -0.2898   -0.0000    0.0000   -0.2898   -0.0000   -0.2948

  MBIS Octupoles: [e a0^3]
   Center  Symbol  Z      XXX       XXY       XXZ       XYY       XYZ       XZZ       YYY       YYZ       YZZ       ZZZ
      1       C    6   -0.0000    0.0000    0.6097   -0.0000   -0.0000    0.0000    0.0000    0.6097    0.0000    1.5441
      2       H    1   -0.0000    0.0000    0.0029    0.0000   -0.0000    0.0000   -0.0000    0.0029   -0.0000    0.0161

  MBIS Radial Moments:
   Center  Symbol  Z      [a0^2]      [a0^3]      [a0^4]
      1       C    6    8.496976   17.927146   45.112165
      2       H    1    0.874375    1.231878    2.075588

  MBIS Valence Widths: [a0]
   Center  Symbol  Z     Width
      1       C    6    0.453624
      2       H    1    0.299578

*** tstop() called on Mac.lan at Sun Aug 10 18:26:50 2025
Module time:
	user time   =       2.65 seconds =       0.04 minutes
	system time =       1.81 seconds =       0.03 minutes
	total time  =          1 seconds =       0.02 minutes
Total time:
	user time   =      10.67 seconds =       0.18 minutes
	system time =       3.82 seconds =       0.06 minutes
	total time  =          1 seconds =       0.02 minutes

    Psi4 stopped on: Sunday, 10 August 2025 06:26PM
    Psi4 wall time for execution: 0:00:01.42

*** Psi4 exiting successfully. Buy a developer a beer!
