                               Psi4 1.9.1 release

  ==> Input File <==

--------------------------------------------------------------------------
molecule {
1 2
O           0.000000           0.000000           0.000000
C           0.000000           0.000000           0.910646
}

set {
basis              cc-pvtz
reference          uks
maxiter            500
DAMPING_PERCENTAGE 1
E_CONVERGENCE      1.0E-8
D_CONVERGENCE      1.0E-8
DIIS_MAX_VECS      400
MBIS_MAXITER       8000
guess              read
}

E, wfn = energy('b3lyp', restart_file='last_wfn', return_wfn=True)
properties('b3lyp','MBIS_CHARGES', wfn=wfn)
wfn.to_file('last_wfn')
--------------------------------------------------------------------------

    Molecular point group: c2v
  Charge       = 1
  Multiplicity = 2
  Basis Set: CC-PVTZ
    Blend: CC-PVTZ
  Basis Set: (CC-PVTZ AUX)
    Blend: CC-PVTZ-JKFIT
  @DF-UKS Final Energy:  -112.67571170107107
    Total Energy =                       -112.6757117010710658
 Dipole X            :          0.0000000            0.0000000            0.0000000
 Dipole Y            :          0.0000000            0.0000000            0.0000000
 Dipole Z            :          0.9321711           -0.0018756            0.9302955
 Magnitude           :                                                    0.9302955
    Molecular point group: c2v

    Geometry (in Angstrom), charge = 1, multiplicity = 2:

       Center              X                  Y                   Z               Mass
    ------------   -----------------  -----------------  -----------------  -----------------
         O            0.000000000000     0.000000000000    -0.390347752386    15.994914619570
         C            0.000000000000     0.000000000000     0.520298247614    12.000000000000

  Charge       = 1
  Multiplicity = 2
  Basis Set: CC-PVTZ
    Blend: CC-PVTZ
  Basis Set: (CC-PVTZ AUX)
    Blend: CC-PVTZ-JKFIT

    Orbital Energies [Eh]
    ---------------------

    Alpha Occupied:

       1A1   -19.623944     2A1   -10.739772     3A1    -1.691747
       1B1    -0.963388     1B2    -0.963388     4A1    -0.938814
       5A1    -0.876019

    Alpha Virtual:

       2B2    -0.334364     2B1    -0.334364     6A1    -0.105541
       7A1    -0.024693     3B2    -0.020685     3B1    -0.020685
       8A1     0.239056     1A2     0.269298     9A1     0.269298
       4B2     0.326662     4B1     0.326662    10A1     0.434237
       5B2     0.574311     5B1     0.574311    11A1     0.870727
      12A1     1.212001     2A2     1.212001    13A1     1.264711
       6B2     1.428021     6B1     1.428021    14A1     1.519611
       7B2     1.688541     7B1     1.688541     8B2     2.208446
       8B1     2.208446    15A1     2.262204    16A1     2.428631
       3A2     2.428631     9B2     2.519989     9B1     2.519989
      17A1     2.575890     4A2     2.575890    18A1     2.640637
      10B1     3.101030    10B2     3.101030    19A1     3.309537
      11B2     3.854067    11B1     3.854067    12B1     4.760155
      12B2     4.760155    20A1     4.847620     5A2     5.476665
      21A1     5.476665    22A1     5.873808     6A2     5.891747
      23A1     5.891752    13B2     6.173049    13B1     6.173049
      14B2     6.586248    14B1     6.586248    24A1     6.587143
      25A1     8.170507    26A1    14.832510

    Beta Occupied:

       1A1   -19.624698     2A1   -10.714489     3A1    -1.684982
       1B1    -0.955050     1B2    -0.955050     4A1    -0.933107

    Beta Virtual:

       5A1    -0.632960     2B2    -0.290445     2B1    -0.290445
       6A1    -0.092204     3B2    -0.009190     3B1    -0.009190
       7A1     0.017369     8A1     0.257327     1A2     0.289215
       9A1     0.289216     4B2     0.327776     4B1     0.327776
      10A1     0.482185     5B2     0.608803     5B1     0.608803
      11A1     0.873733     2A2     1.214172    12A1     1.214173
      13A1     1.326876     6B2     1.449031     6B1     1.449031
      14A1     1.559722     7B2     1.708864     7B1     1.708864
       8B2     2.243258     8B1     2.243258    15A1     2.312861
       3A2     2.481459    16A1     2.481459     4A2     2.626274
      17A1     2.626277     9B2     2.628881     9B1     2.628881
      18A1     2.729421    10B1     3.121654    10B2     3.121654
      19A1     3.368815    11B2     3.872560    11B1     3.872560
      12B1     4.755031    12B2     4.755031    20A1     4.868816
       5A2     5.479798    21A1     5.479799     6A2     5.884545
      22A1     5.884550    23A1     5.891056    13B2     6.173590
      13B1     6.173590    24A1     6.595553    14B2     6.609201
      14B1     6.609201    25A1     8.182997    26A1    14.863857

    Final Occupation by Irrep:
             A1    A2    B1    B2
    DOCC [     4,    0,    1,    1 ]
    SOCC [     1,    0,    0,    0 ]
    NA   [     5,    0,    1,    1 ]
    NB   [     4,    0,    1,    1 ]

  @DF-UKS Final Energy:  -112.67571170102133

   => Energetics <=

    Nuclear Repulsion Energy =             27.8928432257540280
    One-Electron Energy =                -202.4293749938267126
    Two-Electron Energy =                  73.0533162029055916
    DFT Exchange-Correlation Energy =     -11.1924961358542472
    Empirical Dispersion Energy =           0.0000000000000000
    VV10 Nonlocal Energy =                  0.0000000000000000
    Total Energy =                       -112.6757117010213278

  UHF NO Occupations:
  HONO-2 :    1 B2 1.9984666
  HONO-1 :    1 B1 1.9984666
  HONO-0 :    5 A1 1.0000000
  LUNO+0 :    2 B2 0.0015334
  LUNO+1 :    2 B1 0.0015334
  LUNO+2 :    6 A1 0.0000248
  LUNO+3 :    7 A1 0.0000102

Computation Completed

Properties will be evaluated at   0.000000,   0.000000,   0.000000 [a0]

Properties computed using the B3LYP density matrix

 Multipole Moments:

 ------------------------------------------------------------------------------------
     Multipole            Electronic (a.u.)      Nuclear  (a.u.)        Total (a.u.)
 ------------------------------------------------------------------------------------

 L = 1.  Multiply by 2.5417464519 to convert [e a0] to [Debye]
 Dipole X            :          0.0000000            0.0000000            0.0000000
 Dipole Y            :          0.0000000            0.0000000            0.0000000
 Dipole Z            :          0.9321711           -0.0018756            0.9302955
 Magnitude           :                                                    0.9302955

 L = 2.  Multiply by 1.3450342976 to convert [e a0^2] to [Debye ang]
 Quadrupole XX       :         -5.4716835            0.0000000           -5.4716835
 Quadrupole XY       :          0.0000000            0.0000000            0.0000000
 Quadrupole XZ       :          0.0000000            0.0000000            0.0000000
 Quadrupole YY       :         -5.4716835            0.0000000           -5.4716835
 Quadrupole YZ       :          0.0000000            0.0000000            0.0000000
 Quadrupole ZZ       :        -14.6439306           10.1533677           -4.4905629
 Traceless XX        :          3.0574157           -3.3844559           -0.3270402
 Traceless YY        :          3.0574157           -3.3844559           -0.3270402
 Traceless ZZ        :         -6.1148314            6.7689118            0.6540804

 ------------------------------------------------------------------------------------
  ==> Computing MBIS Charges <==

  Electron Count from Grid (Expected Number): 13.00000 (13.00000)
  Difference: -0.00000

  MBIS Charges: (a.u.)
   Center  Symbol  Z      Pop.       Charge
      1       O    8    8.056498   -0.056498
      2       C    6    4.943501    1.056499

  MBIS Dipoles: [e a0]
   Center  Symbol  Z        X           Y           Z
      1       O    8   -0.000000   -0.000000   -0.229106
      2       C    6   -0.000000    0.000000    0.078953

  MBIS Quadrupoles: [e a0^2]
   Center  Symbol  Z      XX        XY        XZ        YY        YZ        ZZ
      1       O    8   -3.2124    0.0000   -0.0000   -3.2124   -0.0000   -3.4860
      2       C    6   -2.2593   -0.0000   -0.0000   -2.2593    0.0000   -2.4884

  MBIS Octupoles: [e a0^3]
   Center  Symbol  Z      XXX       XXY       XXZ       XYY       XYZ       XZZ       YYY       YYZ       YZZ       ZZZ
      1       O    8    0.0000    0.0000   -0.1540   -0.0000   -0.0000   -0.0000   -0.0000   -0.1540    0.0000   -0.2302
      2       C    6   -0.0000    0.0000    0.0190   -0.0000   -0.0000   -0.0000    0.0000    0.0190    0.0000   -0.1436

  MBIS Radial Moments:
   Center  Symbol  Z      [a0^2]      [a0^3]      [a0^4]
      1       O    8    9.910734   17.014909   34.944009
      2       C    6    7.007053   13.883889   32.913095

  MBIS Valence Widths: [a0]
   Center  Symbol  Z     Width
      1       O    8    0.359866
      2       C    6    0.421293

*** tstop() called on Mac.lan at Sun Aug 10 18:36:48 2025
Module time:
	user time   =       3.77 seconds =       0.06 minutes
	system time =       2.53 seconds =       0.04 minutes
	total time  =          0 seconds =       0.00 minutes
Total time:
	user time   =      17.87 seconds =       0.30 minutes
	system time =       4.92 seconds =       0.08 minutes
	total time  =          2 seconds =       0.03 minutes

    Psi4 stopped on: Sunday, 10 August 2025 06:36PM
    Psi4 wall time for execution: 0:00:02.23

*** Psi4 exiting successfully. Buy a developer a beer!
