                               Psi4 1.9.1 release

  ==> Input File <==

--------------------------------------------------------------------------
molecule {
1 2
O           0.000000           0.000000           0.000000
C           0.000000           0.000000           1.277622
}

set {
basis              cc-pvtz
reference          uks
maxiter            500
DAMPING_PERCENTAGE 1
E_CONVERGENCE      1.0E-8
D_CONVERGENCE      1.0E-8
DIIS_MAX_VECS      400
MBIS_MAXITER       8000
guess              read
}

E, wfn = energy('b3lyp', restart_file='last_wfn', return_wfn=True)
properties('b3lyp','MBIS_CHARGES', wfn=wfn)
wfn.to_file('last_wfn')
--------------------------------------------------------------------------

    Molecular point group: c2v
  Charge       = 1
  Multiplicity = 2
  Basis Set: CC-PVTZ
    Blend: CC-PVTZ
  Basis Set: (CC-PVTZ AUX)
    Blend: CC-PVTZ-JKFIT
  @DF-UKS Final Energy:  -112.79140112264069
    Total Energy =                       -112.7914011226406927
 Dipole X            :          0.0000000            0.0000000            0.0000000
 Dipole Y            :          0.0000000            0.0000000            0.0000000
 Dipole Z            :          1.1515743           -0.0026315            1.1489428
 Magnitude           :                                                    1.1489428
    Molecular point group: c2v

    Geometry (in Angstrom), charge = 1, multiplicity = 2:

       Center              X                  Y                   Z               Mass
    ------------   -----------------  -----------------  -----------------  -----------------
         O            0.000000000000     0.000000000000    -0.547651750625    15.994914619570
         C            0.000000000000     0.000000000000     0.729970249375    12.000000000000

  Charge       = 1
  Multiplicity = 2
  Basis Set: CC-PVTZ
    Blend: CC-PVTZ
  Basis Set: (CC-PVTZ AUX)
    Blend: CC-PVTZ-JKFIT

    Orbital Energies [Eh]
    ---------------------

    Alpha Occupied:

       1A1   -19.667761     2A1   -10.833653     3A1    -1.485417
       4A1    -0.989919     5A1    -0.853237     1B1    -0.810813
       1B2    -0.810813

    Alpha Virtual:

       2B1    -0.486532     2B2    -0.486532     6A1    -0.157893
       7A1    -0.015661     3B1    -0.002709     3B2    -0.002709
       8A1     0.043655     9A1     0.247324     1A2     0.287291
      10A1     0.287291     4B1     0.323399     4B2     0.323399
       5B1     0.442362     5B2     0.442362    11A1     0.729036
      12A1     0.867733    13A1     1.132895     2A2     1.132895
       6B1     1.384534     6B2     1.384534    14A1     1.608137
       7B1     1.616990     7B2     1.616990    15A1     1.810543
       8B2     2.225728     8B1     2.225728     3A2     2.330478
      16A1     2.330478     4A2     2.464453    17A1     2.464454
       9B2     2.465603     9B1     2.465603    18A1     2.667239
      10B1     2.732706    10B2     2.732706    19A1     2.765990
      11B1     3.509937    11B2     3.509937    20A1     3.580794
      12B1     4.709833    12B2     4.709833    21A1     4.924881
       5A2     4.924882    22A1     5.255890    13B1     5.443805
      13B2     5.443805    23A1     5.819024     6A2     5.819042
      24A1     5.974367    14B1     6.288763    14B2     6.288763
      25A1     6.639428    26A1     9.734954

    Beta Occupied:

       1A1   -19.667021     2A1   -10.810855     3A1    -1.475126
       4A1    -0.933335     1B1    -0.810682     1B2    -0.810682

    Beta Virtual:

       5A1    -0.658494     2B1    -0.448174     2B2    -0.448174
       6A1    -0.129727     3B1     0.007783     3B2     0.007783
       7A1     0.015732     8A1     0.084347     9A1     0.258126
       1A2     0.307518    10A1     0.307518     4B1     0.321434
       4B2     0.321434     5B1     0.476564     5B2     0.476564
      11A1     0.766942    12A1     0.873251    13A1     1.129586
       2A2     1.129586     6B1     1.408422     6B2     1.408422
       7B1     1.634547     7B2     1.634547    14A1     1.654960
      15A1     1.858444     8B2     2.259646     8B1     2.259646
       3A2     2.359928    16A1     2.359929     4A2     2.524113
      17A1     2.524113     9B2     2.532579     9B1     2.532579
      18A1     2.754899    10B1     2.781599    10B2     2.781599
      19A1     2.815729    11B1     3.514696    11B2     3.514696
      20A1     3.614560    12B1     4.696220    12B2     4.696220
      21A1     4.927545     5A2     4.927547    22A1     5.274518
      13B1     5.460572    13B2     5.460572    23A1     5.802299
       6A2     5.802317    24A1     6.001513    14B1     6.303074
      14B2     6.303074    25A1     6.658576    26A1     9.749043

    Final Occupation by Irrep:
             A1    A2    B1    B2
    DOCC [     4,    0,    1,    1 ]
    SOCC [     1,    0,    0,    0 ]
    NA   [     5,    0,    1,    1 ]
    NB   [     4,    0,    1,    1 ]

  @DF-UKS Final Energy:  -112.79140111467589

   => Energetics <=

    Nuclear Repulsion Energy =             19.8810807204008739
    One-Electron Energy =                -187.5982180579239582
    Two-Electron Energy =                  65.7447280102036586
    DFT Exchange-Correlation Energy =     -10.8189917873564863
    Empirical Dispersion Energy =           0.0000000000000000
    VV10 Nonlocal Energy =                  0.0000000000000000
    Total Energy =                       -112.7914011146758924

  UHF NO Occupations:
  HONO-2 :    1 B2 1.9939116
  HONO-1 :    1 B1 1.9939116
  HONO-0 :    5 A1 1.0000000
  LUNO+0 :    2 B2 0.0060884
  LUNO+1 :    2 B1 0.0060884
  LUNO+2 :    6 A1 0.0010507
  LUNO+3 :    7 A1 0.0000461

Computation Completed

Properties will be evaluated at   0.000000,   0.000000,   0.000000 [a0]

Properties computed using the B3LYP density matrix

 Multipole Moments:

 ------------------------------------------------------------------------------------
     Multipole            Electronic (a.u.)      Nuclear  (a.u.)        Total (a.u.)
 ------------------------------------------------------------------------------------

 L = 1.  Multiply by 2.5417464519 to convert [e a0] to [Debye]
 Dipole X            :          0.0000000            0.0000000            0.0000000
 Dipole Y            :          0.0000000            0.0000000            0.0000000
 Dipole Z            :          1.1515742           -0.0026315            1.1489427
 Magnitude           :                                                    1.1489427

 L = 2.  Multiply by 1.3450342976 to convert [e a0^2] to [Debye ang]
 Quadrupole XX       :         -6.2224887            0.0000000           -6.2224887
 Quadrupole XY       :          0.0000000            0.0000000            0.0000000
 Quadrupole XZ       :          0.0000000            0.0000000            0.0000000
 Quadrupole YY       :         -6.2224887            0.0000000           -6.2224887
 Quadrupole YZ       :          0.0000000            0.0000000            0.0000000
 Quadrupole ZZ       :        -23.4803859           19.9855318           -3.4948541
 Traceless XX        :          5.7526324           -6.6618439           -0.9092115
 Traceless YY        :          5.7526324           -6.6618439           -0.9092115
 Traceless ZZ        :        -11.5052648           13.3236879            1.8184231

 ------------------------------------------------------------------------------------
  ==> Computing MBIS Charges <==

  Electron Count from Grid (Expected Number): 13.00000 (13.00000)
  Difference: -0.00000

  MBIS Charges: (a.u.)
   Center  Symbol  Z      Pop.       Charge
      1       O    8    7.971462    0.028538
      2       C    6    5.028538    0.971462

  MBIS Dipoles: [e a0]
   Center  Symbol  Z        X           Y           Z
      1       O    8   -0.000000   -0.000000   -0.317211
      2       C    6    0.000000    0.000000    0.155610

  MBIS Quadrupoles: [e a0^2]
   Center  Symbol  Z      XX        XY        XZ        YY        YZ        ZZ
      1       O    8   -3.5395   -0.0000    0.0000   -3.5395   -0.0000   -3.6136
      2       C    6   -2.6830   -0.0000    0.0000   -2.6830    0.0000   -2.8463

  MBIS Octupoles: [e a0^3]
   Center  Symbol  Z      XXX       XXY       XXZ       XYY       XYZ       XZZ       YYY       YYZ       YZZ       ZZZ
      1       O    8    0.0000   -0.0000   -0.2972   -0.0000   -0.0000   -0.0000   -0.0000   -0.2972   -0.0000   -0.7839
      2       C    6    0.0000   -0.0000    0.2394    0.0000    0.0000    0.0000    0.0000    0.2394    0.0000    0.3963

  MBIS Radial Moments:
   Center  Symbol  Z      [a0^2]      [a0^3]      [a0^4]
      1       O    8   10.692486   19.291932   41.560099
      2       C    6    8.212354   17.297931   43.350521

  MBIS Valence Widths: [a0]
   Center  Symbol  Z     Width
      1       O    8    0.377447
      2       C    6    0.454911

*** tstop() called on Mac.lan at Sun Aug 10 18:38:02 2025
Module time:
	user time   =       3.81 seconds =       0.06 minutes
	system time =       2.20 seconds =       0.04 minutes
	total time  =          1 seconds =       0.02 minutes
Total time:
	user time   =      18.28 seconds =       0.30 minutes
	system time =       3.06 seconds =       0.05 minutes
	total time  =          2 seconds =       0.03 minutes

    Psi4 stopped on: Sunday, 10 August 2025 06:38PM
    Psi4 wall time for execution: 0:00:02.06

*** Psi4 exiting successfully. Buy a developer a beer!
