                               Psi4 1.9.1 release

  ==> Input File <==

--------------------------------------------------------------------------
molecule {
1 2
O           0.000000           0.000000           0.000000
O           0.000000           0.000000           1.009229
}

set {
basis              cc-pvtz
reference          uks
maxiter            500
DAMPING_PERCENTAGE 1
E_CONVERGENCE      1.0E-8
D_CONVERGENCE      1.0E-8
DIIS_MAX_VECS      400
MBIS_MAXITER       8000
guess              read
}

E, wfn = energy('b3lyp', restart_file='last_wfn', return_wfn=True)
properties('b3lyp','MBIS_CHARGES', wfn=wfn)
wfn.to_file('last_wfn')
--------------------------------------------------------------------------

    Molecular point group: d2h
  Charge       = 1
  Multiplicity = 2
  Basis Set: CC-PVTZ
    Blend: CC-PVTZ
  Basis Set: (CC-PVTZ AUX)
    Blend: CC-PVTZ-JKFIT
  @DF-UKS Final Energy:  -149.89455434487158
    Total Energy =                       -149.8945543448715796
 Dipole X            :          0.0000000            0.0000000            0.0000000
 Dipole Y            :          0.0000000            0.0000000            0.0000000
 Dipole Z            :          0.0000000            0.0000000            0.0000000
 Magnitude           :                                                    0.0000000
    Molecular point group: d2h

    Geometry (in Angstrom), charge = 1, multiplicity = 2:

       Center              X                  Y                   Z               Mass
    ------------   -----------------  -----------------  -----------------  -----------------
         O            0.000000000000     0.000000000000    -0.504614500000    15.994914619570
         O            0.000000000000     0.000000000000     0.504614500000    15.994914619570

  Charge       = 1
  Multiplicity = 2
  Basis Set: CC-PVTZ
    Blend: CC-PVTZ
  Basis Set: (CC-PVTZ AUX)
    Blend: CC-PVTZ-JKFIT

    Orbital Energies [Eh]
    ---------------------

    Alpha Occupied:

       1Ag   -19.809823     1B1u  -19.808556     2Ag    -1.987936
       2B1u   -1.224353     1B3u   -1.122742     1B2u   -1.089445
       3Ag    -1.042838     1B2g   -0.692526

    Alpha Virtual:

       1B3g   -0.563891     3B1u    0.005618     2B3u    0.122264
       2B2u    0.122353     4Ag     0.186542     5Ag     0.257286
       4B1u    0.283090     2B2g    0.290906     2B3g    0.300028
       1B1g    0.728648     6Ag     0.729932     5B1u    0.814502
       3B3u    0.995345     3B2u    0.995525     1Au     1.278833
       6B1u    1.280590     7Ag     1.790481     3B2g    1.850715
       3B3g    1.854477     7B1u    1.900643     4B3u    2.948071
       4B2u    2.964179     8Ag     3.230905     4B2g    3.366467
       4B3g    3.378475     8B1u    4.022569     2B1g    4.047822
       9Ag     4.049061     5B2u    4.267880     5B3u    4.273556
       6B3u    4.274573     6B2u    4.274770    10Ag     4.761321
       5B2g    4.808046     5B3g    4.808349     9B1u    5.419872
       3B1g    5.509698    11Ag     5.513783     2Au     5.633061
      10B1u    5.636842     6B2g    5.730761     6B3g    5.738427
       3Au     5.848657    11B1u    5.850780     7B3u    6.201000
       7B2u    6.203484    12Ag     6.467921    12B1u    6.903757
       7B3g    7.602562     7B2g    7.604115    13Ag     7.613641
      13B1u   18.246909

    Beta Occupied:

       1Ag   -19.793339     1B1u  -19.791954     2Ag    -1.963708
       2B1u   -1.178065     1B2u   -1.075971     1B3u   -1.030178
       3Ag    -1.017893

    Beta Virtual:

       1B3g   -0.545773     1B2g   -0.496948     3B1u    0.018366
       2B2u    0.125907     2B3u    0.145305     4Ag     0.188403
       5Ag     0.270265     4B1u    0.301927     2B3g    0.305222
       2B2g    0.324370     1B1g    0.749627     6Ag     0.749828
       5B1u    0.829667     3B2u    0.998472     3B3u    1.029178
       1Au     1.312652     6B1u    1.312686     7Ag     1.804038
       3B3g    1.859060     3B2g    1.885168     7B1u    1.913571
       4B2u    2.975815     4B3u    3.015772     8Ag     3.242643
       4B3g    3.390676     4B2g    3.432572     8B1u    4.044239
       2B1g    4.066563     9Ag     4.066835     5B2u    4.270423
       5B3u    4.298578     6B2u    4.310641     6B3u    4.315544
      10Ag     4.776568     5B3g    4.848156     5B2g    4.848177
       9B1u    5.438884    11Ag     5.569043     3B1g    5.569114
      10B1u    5.685748     2Au     5.685804     6B3g    5.743972
       6B2g    5.779839     3Au     5.883406    11B1u    5.884627
       7B2u    6.209194     7B3u    6.248174    12Ag     6.497899
      12B1u    6.921951     7B3g    7.607969    13Ag     7.628963
       7B2g    7.644056    13B1u   18.269774

    Final Occupation by Irrep:
             Ag   B1g   B2g   B3g    Au   B1u   B2u   B3u
    DOCC [     3,    0,    0,    0,    0,    2,    1,    1 ]
    SOCC [     0,    0,    1,    0,    0,    0,    0,    0 ]
    NA   [     3,    0,    1,    0,    0,    2,    1,    1 ]
    NB   [     3,    0,    0,    0,    0,    2,    1,    1 ]

  @DF-UKS Final Energy:  -149.89455434554168

   => Energetics <=

    Nuclear Repulsion Energy =             33.5576380413959612
    One-Electron Energy =                -264.5463679345216974
    Two-Electron Energy =                  94.6425430716272160
    DFT Exchange-Correlation Energy =     -13.5483675240431722
    Empirical Dispersion Energy =           0.0000000000000000
    VV10 Nonlocal Energy =                  0.0000000000000000
    Total Energy =                       -149.8945543455416782

  UHF NO Occupations:
  HONO-2 :    2B1u 1.9997400
  HONO-1 :    1B3u 1.9993496
  HONO-0 :    1B2g 1.0000000
  LUNO+0 :    2B3u 0.0006504
  LUNO+1 :    3B1u 0.0002600
  LUNO+2 :    4 Ag 0.0001416
  LUNO+3 :    2B2u 0.0000255

Computation Completed

Properties will be evaluated at   0.000000,   0.000000,   0.000000 [a0]

Properties computed using the B3LYP density matrix

 Multipole Moments:

 ------------------------------------------------------------------------------------
     Multipole            Electronic (a.u.)      Nuclear  (a.u.)        Total (a.u.)
 ------------------------------------------------------------------------------------

 L = 1.  Multiply by 2.5417464519 to convert [e a0] to [Debye]
 Dipole X            :          0.0000000            0.0000000            0.0000000
 Dipole Y            :          0.0000000            0.0000000            0.0000000
 Dipole Z            :          0.0000000            0.0000000            0.0000000
 Magnitude           :                                                    0.0000000

 L = 2.  Multiply by 1.3450342976 to convert [e a0^2] to [Debye ang]
 Quadrupole XX       :         -5.9913590            0.0000000           -5.9913590
 Quadrupole XY       :          0.0000000            0.0000000            0.0000000
 Quadrupole XZ       :          0.0000000            0.0000000            0.0000000
 Quadrupole YY       :         -5.4328838            0.0000000           -5.4328838
 Quadrupole YZ       :          0.0000000            0.0000000            0.0000000
 Quadrupole ZZ       :        -19.8301651           14.5491348           -5.2810303
 Traceless XX        :          4.4267770           -4.8497116           -0.4229346
 Traceless YY        :          4.9852522           -4.8497116            0.1355405
 Traceless ZZ        :         -9.4120291            9.6994232            0.2873941

 ------------------------------------------------------------------------------------
  ==> Computing MBIS Charges <==

  Electron Count from Grid (Expected Number): 15.00000 (15.00000)
  Difference:  0.00000

  MBIS Charges: (a.u.)
   Center  Symbol  Z      Pop.       Charge
      1       O    8    7.500000    0.500000
      2       O    8    7.500000    0.500000

  MBIS Dipoles: [e a0]
   Center  Symbol  Z        X           Y           Z
      1       O    8   -0.000000   -0.000000    0.034183
      2       O    8   -0.000000   -0.000000   -0.034183

  MBIS Quadrupoles: [e a0^2]
   Center  Symbol  Z      XX        XY        XZ        YY        YZ        ZZ
      1       O    8   -2.9957    0.0000    0.0000   -2.7164    0.0000   -3.0300
      2       O    8   -2.9957   -0.0000   -0.0000   -2.7164   -0.0000   -3.0300

  MBIS Octupoles: [e a0^3]
   Center  Symbol  Z      XXX       XXY       XXZ       XYY       XYZ       XZZ       YYY       YYZ       YZZ       ZZZ
      1       O    8   -0.0000   -0.0000    0.0849   -0.0000   -0.0000    0.0000    0.0000   -0.0015   -0.0000   -0.0883
      2       O    8   -0.0000   -0.0000   -0.0849   -0.0000    0.0000    0.0000    0.0000    0.0015   -0.0000    0.0883

  MBIS Radial Moments:
   Center  Symbol  Z      [a0^2]      [a0^3]      [a0^4]
      1       O    8    8.742104   14.786102   30.019955
      2       O    8    8.742104   14.786102   30.019955

  MBIS Valence Widths: [a0]
   Center  Symbol  Z     Width
      1       O    8    0.353460
      2       O    8    0.353460

*** tstop() called on Mac.lan at Sun Aug 10 18:12:40 2025
Module time:
	user time   =       4.02 seconds =       0.07 minutes
	system time =       1.57 seconds =       0.03 minutes
	total time  =          1 seconds =       0.02 minutes
Total time:
	user time   =      15.49 seconds =       0.26 minutes
	system time =       3.67 seconds =       0.06 minutes
	total time  =          2 seconds =       0.03 minutes

    Psi4 stopped on: Sunday, 10 August 2025 06:12PM
    Psi4 wall time for execution: 0:00:01.87

*** Psi4 exiting successfully. Buy a developer a beer!
