                               Psi4 1.9.1 release

  ==> Input File <==

--------------------------------------------------------------------------
molecule {
1 2
O           0.000000           0.000000           0.000000
C           0.000000           0.000000           1.481498
}

set {
basis              cc-pvtz
reference          uks
maxiter            500
DAMPING_PERCENTAGE 1
E_CONVERGENCE      1.0E-8
D_CONVERGENCE      1.0E-8
DIIS_MAX_VECS      400
MBIS_MAXITER       8000
guess              read
}

E, wfn = energy('b3lyp', restart_file='last_wfn', return_wfn=True)
properties('b3lyp','MBIS_CHARGES', wfn=wfn)
wfn.to_file('last_wfn')
--------------------------------------------------------------------------

    Molecular point group: c2v
  Charge       = 1
  Multiplicity = 2
  Basis Set: CC-PVTZ
    Blend: CC-PVTZ
  Basis Set: (CC-PVTZ AUX)
    Blend: CC-PVTZ-JKFIT
  @DF-UKS Final Energy:  -112.69457190341723
    Total Energy =                       -112.6945719034172271
 Dipole X            :          0.0000000            0.0000000            0.0000000
 Dipole Y            :          0.0000000            0.0000000            0.0000000
 Dipole Z            :          1.2031769           -0.0030514            1.2001255
 Magnitude           :                                                    1.2001255
    Molecular point group: c2v

    Geometry (in Angstrom), charge = 1, multiplicity = 2:

       Center              X                  Y                   Z               Mass
    ------------   -----------------  -----------------  -----------------  -----------------
         O            0.000000000000     0.000000000000    -0.635043051268    15.994914619570
         C            0.000000000000     0.000000000000     0.846454948732    12.000000000000

  Charge       = 1
  Multiplicity = 2
  Basis Set: CC-PVTZ
    Blend: CC-PVTZ
  Basis Set: (CC-PVTZ AUX)
    Blend: CC-PVTZ-JKFIT

    Orbital Energies [Eh]
    ---------------------

    Alpha Occupied:

       1A1   -19.668340     2A1   -10.859855     3A1    -1.405348
       4A1    -1.005142     5A1    -0.836030     1B1    -0.762065
       1B2    -0.762065

    Alpha Virtual:

       2B1    -0.527005     2B2    -0.527005     6A1    -0.296377
       7A1    -0.012687     8A1     0.002581     3B2     0.005743
       3B1     0.005743     9A1     0.244822     4B1     0.299725
       4B2     0.299725     1A2     0.300247    10A1     0.300247
       5B2     0.417467     5B1     0.417467    11A1     0.650985
      12A1     0.877973    13A1     1.121506     2A2     1.121507
       6B2     1.288939     6B1     1.288939    14A1     1.525967
       7B2     1.582616     7B1     1.582616    15A1     1.810384
       8B2     2.234877     8B1     2.234877     3A2     2.270453
      16A1     2.270453     9B1     2.414839     9B2     2.414839
       4A2     2.467506    17A1     2.467508    18A1     2.476317
      10B2     2.673378    10B1     2.673378    19A1     2.739249
      20A1     3.300231    11B1     3.344773    11B2     3.344773
      21A1     4.604968    12B2     4.722141    12B1     4.722141
      22A1     4.785581     5A2     4.785582    13B2     5.089233
      13B1     5.089233    23A1     5.549289     6A2     5.791460
      24A1     5.791504    14B1     6.133261    14B2     6.133261
      25A1     6.781220    26A1     8.097970

    Beta Occupied:

       1A1   -19.661560     2A1   -10.843697     3A1    -1.382499
       4A1    -0.936277     1B1    -0.760806     1B2    -0.760806

    Beta Virtual:

       5A1    -0.657847     2B2    -0.498242     2B1    -0.498242
       6A1    -0.242166     7A1    -0.001800     3B2     0.013243
       3B1     0.013243     8A1     0.039572     9A1     0.263368
       4B2     0.305609     4B1     0.305609     1A2     0.314410
      10A1     0.314410     5B2     0.441369     5B1     0.441369
      11A1     0.687681    12A1     0.891988    13A1     1.118762
       2A2     1.118762     6B2     1.315477     6B1     1.315477
      14A1     1.563047     7B2     1.599918     7B1     1.599918
      15A1     1.857347     8B2     2.256407     8B1     2.256407
       3A2     2.299062    16A1     2.299062     9B1     2.447604
       9B2     2.447604     4A2     2.501867    17A1     2.501869
      18A1     2.524956    10B2     2.736933    10B1     2.736933
      19A1     2.816752    20A1     3.341778    11B1     3.346445
      11B2     3.346445    21A1     4.631155    12B2     4.711873
      12B1     4.711873    22A1     4.797980     5A2     4.797981
      13B2     5.117804    13B1     5.117804    23A1     5.601977
       6A2     5.780812    24A1     5.780858    14B1     6.168813
      14B2     6.168813    25A1     6.827710    26A1     8.107844

    Final Occupation by Irrep:
             A1    A2    B1    B2
    DOCC [     4,    0,    1,    1 ]
    SOCC [     1,    0,    0,    0 ]
    NA   [     5,    0,    1,    1 ]
    NB   [     4,    0,    1,    1 ]

  @DF-UKS Final Energy:  -112.69457189628767

   => Energetics <=

    Nuclear Repulsion Energy =             17.1451504572804154
    One-Electron Energy =                -182.3108359456243193
    Two-Electron Energy =                  63.1949262864010706
    DFT Exchange-Correlation Energy =     -10.7238126943448222
    Empirical Dispersion Energy =           0.0000000000000000
    VV10 Nonlocal Energy =                  0.0000000000000000
    Total Energy =                       -112.6945718962876697

  UHF NO Occupations:
  HONO-2 :    1 B1 1.9955695
  HONO-1 :    1 B2 1.9955695
  HONO-0 :    5 A1 1.0000000
  LUNO+0 :    2 B2 0.0044305
  LUNO+1 :    2 B1 0.0044305
  LUNO+2 :    6 A1 0.0043420
  LUNO+3 :    7 A1 0.0001239

Computation Completed

Properties will be evaluated at   0.000000,   0.000000,   0.000000 [a0]

Properties computed using the B3LYP density matrix

 Multipole Moments:

 ------------------------------------------------------------------------------------
     Multipole            Electronic (a.u.)      Nuclear  (a.u.)        Total (a.u.)
 ------------------------------------------------------------------------------------

 L = 1.  Multiply by 2.5417464519 to convert [e a0] to [Debye]
 Dipole X            :          0.0000000            0.0000000            0.0000000
 Dipole Y            :          0.0000000            0.0000000            0.0000000
 Dipole Z            :          1.2031766           -0.0030514            1.2001252
 Magnitude           :                                                    1.2001252

 L = 2.  Multiply by 1.3450342976 to convert [e a0^2] to [Debye ang]
 Quadrupole XX       :         -6.5214330            0.0000000           -6.5214330
 Quadrupole XY       :          0.0000000            0.0000000            0.0000000
 Quadrupole XZ       :          0.0000000            0.0000000            0.0000000
 Quadrupole YY       :         -6.5214330            0.0000000           -6.5214330
 Quadrupole YZ       :          0.0000000            0.0000000            0.0000000
 Quadrupole ZZ       :        -29.6092815           26.8728103           -2.7364712
 Traceless XX        :          7.6959495           -8.9576034           -1.2616539
 Traceless YY        :          7.6959495           -8.9576034           -1.2616539
 Traceless ZZ        :        -15.3918990           17.9152068            2.5233079

 ------------------------------------------------------------------------------------
  ==> Computing MBIS Charges <==

  Electron Count from Grid (Expected Number): 13.00000 (13.00000)
  Difference: -0.00000

  MBIS Charges: (a.u.)
   Center  Symbol  Z      Pop.       Charge
      1       O    8    7.925525    0.074475
      2       C    6    5.074474    0.925526

  MBIS Dipoles: [e a0]
   Center  Symbol  Z        X           Y           Z
      1       O    8   -0.000000   -0.000000   -0.349203
      2       C    6   -0.000000    0.000000    0.158259

  MBIS Quadrupoles: [e a0^2]
   Center  Symbol  Z      XX        XY        XZ        YY        YZ        ZZ
      1       O    8   -3.6639   -0.0000   -0.0000   -3.6639    0.0000   -3.5386
      2       C    6   -2.8576    0.0000    0.0000   -2.8576    0.0000   -3.0176

  MBIS Octupoles: [e a0^3]
   Center  Symbol  Z      XXX       XXY       XXZ       XYY       XYZ       XZZ       YYY       YYZ       YZZ       ZZZ
      1       O    8   -0.0000   -0.0000   -0.3318   -0.0000    0.0000    0.0000   -0.0000   -0.3318   -0.0000   -1.0012
      2       C    6   -0.0000   -0.0000    0.3273   -0.0000    0.0000   -0.0000    0.0000    0.3273    0.0000    0.6257

  MBIS Radial Moments:
   Center  Symbol  Z      [a0^2]      [a0^3]      [a0^4]
      1       O    8   10.866303   19.953811   43.774149
      2       C    6    8.732775   18.872143   48.510788

  MBIS Valence Widths: [a0]
   Center  Symbol  Z     Width
      1       O    8    0.381674
      2       C    6    0.467035

*** tstop() called on Mac.lan at Sun Aug 10 18:38:34 2025
Module time:
	user time   =       3.61 seconds =       0.06 minutes
	system time =       2.35 seconds =       0.04 minutes
	total time  =          1 seconds =       0.02 minutes
Total time:
	user time   =      22.99 seconds =       0.38 minutes
	system time =       5.31 seconds =       0.09 minutes
	total time  =          3 seconds =       0.05 minutes

    Psi4 stopped on: Sunday, 10 August 2025 06:38PM
    Psi4 wall time for execution: 0:00:02.75

*** Psi4 exiting successfully. Buy a developer a beer!
