                               Psi4 1.9.1 release

  ==> Input File <==

--------------------------------------------------------------------------
molecule {
1 2
N           0.000000           0.000000           0.000000
N           0.000000           0.000000           1.515119
}

set {
basis              cc-pvtz
reference          uks
maxiter            500
DAMPING_PERCENTAGE 1
E_CONVERGENCE      1.0E-8
D_CONVERGENCE      1.0E-8
DIIS_MAX_VECS      400
MBIS_MAXITER       8000
guess              read
}

E, wfn = energy('b3lyp', restart_file='last_wfn', return_wfn=True)
properties('b3lyp','MBIS_CHARGES', wfn=wfn)
wfn.to_file('last_wfn')
--------------------------------------------------------------------------

    Molecular point group: d2h
  Charge       = 1
  Multiplicity = 2
  Basis Set: CC-PVTZ
    Blend: CC-PVTZ
  Basis Set: (CC-PVTZ AUX)
    Blend: CC-PVTZ-JKFIT
  @DF-UKS Final Energy:  -108.81499976933483
    Total Energy =                       -108.8149997693348610
 Dipole X            :          0.0000000            0.0000000            0.0000000
 Dipole Y            :          0.0000000            0.0000000            0.0000000
 Dipole Z            :          0.0000000           -0.0000000           -0.0000000
 Magnitude           :                                                    0.0000000
    Molecular point group: d2h

    Geometry (in Angstrom), charge = 1, multiplicity = 2:

       Center              X                  Y                   Z               Mass
    ------------   -----------------  -----------------  -----------------  -----------------
         N            0.000000000000     0.000000000000    -0.757559500000    14.003074004430
         N            0.000000000000     0.000000000000     0.757559500000    14.003074004430

  Charge       = 1
  Multiplicity = 2
  Basis Set: CC-PVTZ
    Blend: CC-PVTZ
  Basis Set: (CC-PVTZ AUX)
    Blend: CC-PVTZ-JKFIT

    Orbital Energies [Eh]
    ---------------------

    Alpha Occupied:

       1Ag   -14.952909     1B1u  -14.952709     2Ag    -1.339911
       2B1u   -1.079756     3Ag    -0.857951     1B2u   -0.764756
       1B3u   -0.764756

    Alpha Virtual:

       1B2g   -0.557573     1B3g   -0.557573     3B1u   -0.343795
       4B1u    0.086232     2B3u    0.112092     2B2u    0.112092
       4Ag     0.133352     5Ag     0.167544     2B2g    0.207860
       2B3g    0.207860     3B2u    0.524092     3B3u    0.524092
       6Ag     0.541053     1B1g    0.541053     5B1u    0.545480
       1Au     0.792071     6B1u    0.792071     7Ag     1.065917
       3B2g    1.163688     3B3g    1.163688     7B1u    1.284433
       4B2u    2.276788     4B3u    2.276788     8Ag     2.314973
       4B3g    2.465028     4B2g    2.465028     8B1u    3.051688
       5B2u    3.093800     5B3u    3.093800     9Ag     3.144660
      10Ag     3.145485     2B1g    3.145486     6B3u    3.390951
       6B2u    3.390951     5B2g    3.494163     5B3g    3.494163
       9B1u    3.737702     2Au     3.737704    11Ag     3.914888
       3B1g    3.914898     6B2g    4.012925     6B3g    4.012925
      10B1u    4.068242     3Au     4.068252     7B2u    4.070943
       7B3u    4.070943    11B1u    4.121455    12B1u    4.373868
      12Ag     4.509426     7B2g    4.741243     7B3g    4.741243
      13Ag     5.168824    13B1u    7.136603

    Beta Occupied:

       1Ag   -14.940938     1B1u  -14.940829     2Ag    -1.306569
       2B1u   -1.012131     1B2u   -0.752843     1B3u   -0.752843

    Beta Virtual:

       3Ag    -0.679790     1B2g   -0.541442     1B3g   -0.541442
       3B1u   -0.277388     2B3u    0.116093     2B2u    0.116093
       4B1u    0.119697     4Ag     0.163017     5Ag     0.180172
       2B2g    0.211710     2B3g    0.211710     6Ag     0.543724
       1B1g    0.543724     3B2u    0.554559     3B3u    0.554559
       5B1u    0.556262     1Au     0.796636     6B1u    0.796636
       7Ag     1.107057     3B2g    1.192487     3B3g    1.192487
       7B1u    1.328467     4B2u    2.291543     4B3u    2.291543
       8Ag     2.375663     4B3g    2.472143     4B2g    2.472143
       8B1u    3.096672     5B2u    3.127070     5B3u    3.127070
       9Ag     3.173600     2B1g    3.173601    10Ag     3.187667
       6B3u    3.393369     6B2u    3.393369     5B2g    3.496444
       5B3g    3.496444     9B1u    3.747773     2Au     3.747775
      11Ag     3.919167     3B1g    3.919177     6B2g    4.051432
       6B3g    4.051432    10B1u    4.087616     3Au     4.087626
       7B2u    4.123110     7B3u    4.123110    11B1u    4.191063
      12B1u    4.421714    12Ag     4.573516     7B2g    4.791480
       7B3g    4.791480    13Ag     5.201407    13B1u    7.164612

    Final Occupation by Irrep:
             Ag   B1g   B2g   B3g    Au   B1u   B2u   B3u
    DOCC [     2,    0,    0,    0,    0,    2,    1,    1 ]
    SOCC [     1,    0,    0,    0,    0,    0,    0,    0 ]
    NA   [     3,    0,    0,    0,    0,    2,    1,    1 ]
    NB   [     2,    0,    0,    0,    0,    2,    1,    1 ]

  @DF-UKS Final Energy:  -108.81499977415440

   => Energetics <=

    Nuclear Repulsion Energy =             17.1139582586120298
    One-Electron Energy =                -175.8738078450404316
    Two-Electron Energy =                  60.4393478899065713
    DFT Exchange-Correlation Energy =     -10.4944980776325725
    Empirical Dispersion Energy =           0.0000000000000000
    VV10 Nonlocal Energy =                  0.0000000000000000
    Total Energy =                       -108.8149997741544013

  UHF NO Occupations:
  HONO-2 :    2 Ag 1.9997851
  HONO-1 :    2B1u 1.9956868
  HONO-0 :    3 Ag 1.0000000
  LUNO+0 :    3B1u 0.0043132
  LUNO+1 :    4 Ag 0.0002149
  LUNO+2 :    2B2u 0.0001025
  LUNO+3 :    2B3u 0.0001025

Computation Completed

Properties will be evaluated at   0.000000,   0.000000,   0.000000 [a0]

Properties computed using the B3LYP density matrix

 Multipole Moments:

 ------------------------------------------------------------------------------------
     Multipole            Electronic (a.u.)      Nuclear  (a.u.)        Total (a.u.)
 ------------------------------------------------------------------------------------

 L = 1.  Multiply by 2.5417464519 to convert [e a0] to [Debye]
 Dipole X            :          0.0000000            0.0000000            0.0000000
 Dipole Y            :          0.0000000            0.0000000            0.0000000
 Dipole Z            :          0.0000000           -0.0000000           -0.0000000
 Magnitude           :                                                    0.0000000

 L = 2.  Multiply by 1.3450342976 to convert [e a0^2] to [Debye ang]
 Quadrupole XX       :         -6.8452516            0.0000000           -6.8452516
 Quadrupole XY       :          0.0000000            0.0000000            0.0000000
 Quadrupole XZ       :          0.0000000            0.0000000            0.0000000
 Quadrupole YY       :         -6.8452516            0.0000000           -6.8452516
 Quadrupole YZ       :          0.0000000            0.0000000            0.0000000
 Quadrupole ZZ       :        -31.6114490           28.6918973           -2.9195517
 Traceless XX        :          8.2553991           -9.5639658           -1.3085666
 Traceless YY        :          8.2553991           -9.5639658           -1.3085666
 Traceless ZZ        :        -16.5107983           19.1279315            2.6171332

 ------------------------------------------------------------------------------------
  ==> Computing MBIS Charges <==

  Electron Count from Grid (Expected Number): 13.00000 (13.00000)
  Difference: -0.00000

  MBIS Charges: (a.u.)
   Center  Symbol  Z      Pop.       Charge
      1       N    7    6.500000    0.500000
      2       N    7    6.500000    0.500000

  MBIS Dipoles: [e a0]
   Center  Symbol  Z        X           Y           Z
      1       N    7    0.000000   -0.000000   -0.296601
      2       N    7   -0.000000    0.000000    0.296601

  MBIS Quadrupoles: [e a0^2]
   Center  Symbol  Z      XX        XY        XZ        YY        YZ        ZZ
      1       N    7   -3.4226   -0.0000   -0.0000   -3.4226   -0.0000   -3.3337
      2       N    7   -3.4226   -0.0000    0.0000   -3.4226    0.0000   -3.3337

  MBIS Octupoles: [e a0^3]
   Center  Symbol  Z      XXX       XXY       XXZ       XYY       XYZ       XZZ       YYY       YYZ       YZZ       ZZZ
      1       N    7   -0.0000   -0.0000   -0.3889   -0.0000    0.0000   -0.0000   -0.0000   -0.3889   -0.0000   -1.0182
      2       N    7   -0.0000    0.0000    0.3889   -0.0000   -0.0000   -0.0000   -0.0000    0.3889    0.0000    1.0182

  MBIS Radial Moments:
   Center  Symbol  Z      [a0^2]      [a0^3]      [a0^4]
      1       N    7   10.178956   20.310690   48.338484
      2       N    7   10.178956   20.310690   48.338484

  MBIS Valence Widths: [a0]
   Center  Symbol  Z     Width
      1       N    7    0.421683
      2       N    7    0.421683

*** tstop() called on Mac.lan at Sun Aug 10 18:25:47 2025
Module time:
	user time   =       4.55 seconds =       0.08 minutes
	system time =       1.59 seconds =       0.03 minutes
	total time  =          0 seconds =       0.00 minutes
Total time:
	user time   =      17.21 seconds =       0.29 minutes
	system time =       3.89 seconds =       0.06 minutes
	total time  =          2 seconds =       0.03 minutes

    Psi4 stopped on: Sunday, 10 August 2025 06:25PM
    Psi4 wall time for execution: 0:00:02.11

*** Psi4 exiting successfully. Buy a developer a beer!
