                               Psi4 1.9.1 release

  ==> Input File <==

--------------------------------------------------------------------------
molecule {
1 4
C           0.000000           0.000000           0.000000
C           0.000000           0.000000           1.385450
}

set {
basis              cc-pvtz
reference          uks
maxiter            500
DAMPING_PERCENTAGE 1
E_CONVERGENCE      1.0E-8
D_CONVERGENCE      1.0E-8
DIIS_MAX_VECS      400
MBIS_MAXITER       8000
guess              read
}

E, wfn = energy('b3lyp', restart_file='last_wfn', return_wfn=True)
properties('b3lyp','MBIS_CHARGES', wfn=wfn)
wfn.to_file('last_wfn')
--------------------------------------------------------------------------

    Molecular point group: d2h
  Charge       = 1
  Multiplicity = 4
  Basis Set: CC-PVTZ
    Blend: CC-PVTZ
  Basis Set: (CC-PVTZ AUX)
    Blend: CC-PVTZ-JKFIT
  @DF-UKS Final Energy:   -75.44122877305139
    Total Energy =                        -75.4412287730513924
 Dipole X            :          0.0000000            0.0000000            0.0000000
 Dipole Y            :          0.0000000            0.0000000            0.0000000
 Dipole Z            :          0.0000000            0.0000000            0.0000000
 Magnitude           :                                                    0.0000000
    Molecular point group: d2h

    Geometry (in Angstrom), charge = 1, multiplicity = 4:

       Center              X                  Y                   Z               Mass
    ------------   -----------------  -----------------  -----------------  -----------------
         C            0.000000000000     0.000000000000    -0.692725000000    12.000000000000
         C            0.000000000000     0.000000000000     0.692725000000    12.000000000000

  Charge       = 1
  Multiplicity = 4
  Basis Set: CC-PVTZ
    Blend: CC-PVTZ
  Basis Set: (CC-PVTZ AUX)
    Blend: CC-PVTZ-JKFIT

    Orbital Energies [Eh]
    ---------------------

    Alpha Occupied:

       1Ag   -10.714610     1B1u  -10.713885     2Ag    -1.152813
       2B1u   -0.851054     3Ag    -0.736887     1B2u   -0.708150
       1B3u   -0.673749

    Alpha Virtual:

       1B3g   -0.426601     1B2g   -0.397025     3B1u   -0.072281
       2B2u    0.003575     2B3u    0.015230     4Ag     0.023436
       5Ag     0.032659     4B1u    0.060934     2B3g    0.098817
       2B2g    0.107646     1B1g    0.241797     6Ag     0.242325
       5B1u    0.343538     3B2u    0.355124     3B3u    0.378521
       1Au     0.515260     6B1u    0.515298     3B3g    0.799884
       3B2g    0.814630     7Ag     0.820524     7B1u    0.891665
       4B2u    1.533234     4B3u    1.557752     8Ag     1.635753
       4B3g    1.730720     4B2g    1.757616     2B1g    2.025110
       9Ag     2.025517     8B1u    2.025755     5B2u    2.039983
       5B3u    2.068889     6B2u    2.159326     6B3u    2.159681
      10Ag     2.242396     5B3g    2.436371     5B2g    2.436729
      11Ag     2.509849     3B1g    2.510114     9B1u    2.603284
       2Au     2.604289     6B3g    2.638010     6B2g    2.658863
      10B1u    2.690487     7B2u    2.910022     7B3u    2.935437
       3Au     2.950725    11B1u    2.951243    12Ag     3.355697
      12B1u    3.357494    13Ag     3.849449     7B3g    3.878076
       7B2g    3.905471    13B1u    9.344989

    Beta Occupied:

       1Ag   -10.681085     1B1u  -10.680578     2Ag    -1.069798
       1B3u   -0.630687

    Beta Virtual:

       2B1u   -0.607352     1B2u   -0.525738     3Ag    -0.489349
       1B2g   -0.334006     1B3g   -0.292198     3B1u   -0.037174
       2B3u    0.024119     2B2u    0.036053     4Ag     0.053459
       5Ag     0.089505     2B2g    0.120118     2B3g    0.134339
       4B1u    0.170303     1B1g    0.276253     6Ag     0.280928
       5B1u    0.371584     3B3u    0.427263     3B2u    0.443943
       1Au     0.554674     6B1u    0.560907     3B2g    0.853453
       3B3g    0.867981     7Ag     0.899186     7B1u    0.953851
       4B3u    1.585723     4B2u    1.602984     8Ag     1.702336
       4B2g    1.785170     4B3g    1.799471     2B1g    2.082305
       9Ag     2.089879     5B3u    2.111425     8B1u    2.114385
       5B2u    2.130740     6B3u    2.214496     6B2u    2.218242
      10Ag     2.361161     5B2g    2.494844     5B3g    2.498896
       3B1g    2.595248    11Ag     2.606121     2Au     2.681228
       9B1u    2.690353     6B2g    2.757688     6B3g    2.793356
      10B1u    2.817690     3Au     3.023538     7B3u    3.030309
      11B1u    3.034737     7B2u    3.062122    12Ag     3.448506
      12B1u    3.453981    13Ag     3.924102     7B2g    3.959709
       7B3g    3.982716    13B1u    9.393750

    Final Occupation by Irrep:
             Ag   B1g   B2g   B3g    Au   B1u   B2u   B3u
    DOCC [     2,    0,    0,    0,    0,    1,    0,    1 ]
    SOCC [     1,    0,    0,    0,    0,    1,    1,    0 ]
    NA   [     3,    0,    0,    0,    0,    2,    1,    1 ]
    NB   [     2,    0,    0,    0,    0,    1,    0,    1 ]

  @DF-UKS Final Energy:   -75.44122877352318

   => Energetics <=

    Nuclear Repulsion Energy =             13.7503190906348127
    One-Electron Energy =                -123.8030763191371761
    Two-Electron Energy =                  42.8843956791008054
    DFT Exchange-Correlation Energy =      -8.2728672241216312
    Empirical Dispersion Energy =           0.0000000000000000
    VV10 Nonlocal Energy =                  0.0000000000000000
    Total Energy =                        -75.4412287735231786

  UHF NO Occupations:
  HONO-2 :    3 Ag 1.0000000
  HONO-1 :    1B2u 1.0000000
  HONO-0 :    2B1u 1.0000000
  LUNO+0 :    2B3u 0.0009043
  LUNO+1 :    4 Ag 0.0005602
  LUNO+2 :    3B1u 0.0000007
  LUNO+3 :    5 Ag 0.0000004

Computation Completed

Properties will be evaluated at   0.000000,   0.000000,   0.000000 [a0]

Properties computed using the B3LYP density matrix

 Multipole Moments:

 ------------------------------------------------------------------------------------
     Multipole            Electronic (a.u.)      Nuclear  (a.u.)        Total (a.u.)
 ------------------------------------------------------------------------------------

 L = 1.  Multiply by 2.5417464519 to convert [e a0] to [Debye]
 Dipole X            :          0.0000000            0.0000000            0.0000000
 Dipole Y            :          0.0000000            0.0000000            0.0000000
 Dipole Z            :          0.0000000            0.0000000            0.0000000
 Magnitude           :                                                    0.0000000

 L = 2.  Multiply by 1.3450342976 to convert [e a0^2] to [Debye ang]
 Quadrupole XX       :         -7.4044209            0.0000000           -7.4044209
 Quadrupole XY       :          0.0000000            0.0000000            0.0000000
 Quadrupole XZ       :          0.0000000            0.0000000            0.0000000
 Quadrupole YY       :         -6.1123213            0.0000000           -6.1123213
 Quadrupole YZ       :          0.0000000            0.0000000            0.0000000
 Quadrupole ZZ       :        -23.7752478           20.5636737           -3.2115742
 Traceless XX        :          5.0262424           -6.8545579           -1.8283155
 Traceless YY        :          6.3183421           -6.8545579           -0.5362158
 Traceless ZZ        :        -11.3445845           13.7091158            2.3645313

 ------------------------------------------------------------------------------------
  ==> Computing MBIS Charges <==

  Electron Count from Grid (Expected Number): 11.00000 (11.00000)
  Difference:  0.00000

  MBIS Charges: (a.u.)
   Center  Symbol  Z      Pop.       Charge
      1       C    6    5.500000    0.500000
      2       C    6    5.500000    0.500000

  MBIS Dipoles: [e a0]
   Center  Symbol  Z        X           Y           Z
      1       C    6   -0.000000    0.000000   -0.410291
      2       C    6   -0.000000    0.000000    0.410291

  MBIS Quadrupoles: [e a0^2]
   Center  Symbol  Z      XX        XY        XZ        YY        YZ        ZZ
      1       C    6   -3.7022    0.0000   -0.0000   -3.0562   -0.0000   -3.5368
      2       C    6   -3.7022    0.0000    0.0000   -3.0562    0.0000   -3.5368

  MBIS Octupoles: [e a0^3]
   Center  Symbol  Z      XXX       XXY       XXZ       XYY       XYZ       XZZ       YYY       YYZ       YZZ       ZZZ
      1       C    6   -0.0000    0.0000   -0.5935   -0.0000   -0.0000   -0.0000    0.0000   -0.3828    0.0000   -1.0587
      2       C    6   -0.0000    0.0000    0.5935    0.0000    0.0000   -0.0000    0.0000    0.3828    0.0000    1.0587

  MBIS Radial Moments:
   Center  Symbol  Z      [a0^2]      [a0^3]      [a0^4]
      1       C    6   10.295168   22.913817   60.823320
      2       C    6   10.295168   22.913817   60.823320

  MBIS Valence Widths: [a0]
   Center  Symbol  Z     Width
      1       C    6    0.477604
      2       C    6    0.477604

*** tstop() called on Mac.lan at Sun Aug 10 18:16:20 2025
Module time:
	user time   =       3.88 seconds =       0.06 minutes
	system time =       2.52 seconds =       0.04 minutes
	total time  =          0 seconds =       0.00 minutes
Total time:
	user time   =      15.65 seconds =       0.26 minutes
	system time =       4.71 seconds =       0.08 minutes
	total time  =          2 seconds =       0.03 minutes

    Psi4 stopped on: Sunday, 10 August 2025 06:16PM
    Psi4 wall time for execution: 0:00:02.01

*** Psi4 exiting successfully. Buy a developer a beer!
