                               Psi4 1.9.1 release

  ==> Input File <==

--------------------------------------------------------------------------
molecule {
1 3
N           0.000000           0.000000           0.000000
C           0.000000           0.000000           0.738938
}

set {
basis              cc-pvtz
reference          uks
maxiter            500
DAMPING_PERCENTAGE 1
E_CONVERGENCE      1.0E-8
D_CONVERGENCE      1.0E-8
DIIS_MAX_VECS      400
MBIS_MAXITER       8000
guess              read
}

E, wfn = energy('b3lyp', restart_file='last_wfn', return_wfn=True)
properties('b3lyp','MBIS_CHARGES', wfn=wfn)
wfn.to_file('last_wfn')
--------------------------------------------------------------------------

    Molecular point group: c2v
  Charge       = 1
  Multiplicity = 3
  Basis Set: CC-PVTZ
    Blend: CC-PVTZ
  Basis Set: (CC-PVTZ AUX)
    Blend: CC-PVTZ-JKFIT
  @DF-UKS Final Energy:   -91.20022839885004
    Total Energy =                        -91.2002283988500437
 Dipole X            :          0.0000000            0.0000000            0.0000000
 Dipole Y            :          0.0000000            0.0000000            0.0000000
 Dipole Z            :          0.0232595            0.0009905            0.0242499
 Magnitude           :                                                    0.0242499
    Molecular point group: c2v

    Geometry (in Angstrom), charge = 1, multiplicity = 3:

       Center              X                  Y                   Z               Mass
    ------------   -----------------  -----------------  -----------------  -----------------
         N            0.000000000000     0.000000000000    -0.341007989997    14.003074004430
         C            0.000000000000     0.000000000000     0.397930010003    12.000000000000

  Charge       = 1
  Multiplicity = 3
  Basis Set: CC-PVTZ
    Blend: CC-PVTZ
  Basis Set: (CC-PVTZ AUX)
    Blend: CC-PVTZ-JKFIT

    Orbital Energies [Eh]
    ---------------------

    Alpha Occupied:

       1A1   -14.829401     2A1   -10.687006     3A1    -1.466858
       1B2    -0.994146     1B1    -0.994146     4A1    -0.929500
       5A1    -0.790971

    Alpha Virtual:

       2B1    -0.188327     2B2    -0.188327     6A1    -0.095596
       3B1    -0.028221     3B2    -0.028221     7A1    -0.003092
       8A1     0.127062     4B2     0.248090     4B1     0.248090
       1A2     0.286055     9A1     0.286055    10A1     0.539949
       5B1     0.672324     5B2     0.672324    11A1     0.728985
      12A1     0.907644     2A2     0.907644     6B1     1.115732
       6B2     1.115732    13A1     1.153091     7B2     1.547666
       7B1     1.547666    14A1     1.883554    15A1     2.126500
       8B2     2.232969     8B1     2.232969     3A2     2.411755
      16A1     2.411755     9B1     2.526482     9B2     2.526482
      17A1     2.577448    18A1     2.638152     4A2     2.638152
      10B1     2.982580    10B2     2.982580    19A1     3.106260
      11B1     3.419370    11B2     3.419370    12B2     3.741117
      12B1     3.741117    20A1     4.038293     5A2     4.038293
      21A1     4.295892    13B1     4.802649    13B2     4.802649
      22A1     5.063929     6A2     5.063930    23A1     5.320835
      14B2     6.209605    14B1     6.209605    24A1     6.461291
      25A1     7.498066    26A1    18.448299

    Beta Occupied:

       1A1   -14.799588     2A1   -10.656754     3A1    -1.417907
       1B2    -0.960970     1B1    -0.960970

    Beta Virtual:

       4A1    -0.639070     5A1    -0.544715     2B1    -0.137569
       2B2    -0.137569     6A1    -0.068927     3B1    -0.012885
       3B2    -0.012885     7A1     0.035516     8A1     0.173211
       4B2     0.273059     4B1     0.273059     1A2     0.299880
       9A1     0.299880    10A1     0.591676     5B1     0.717940
       5B2     0.717940    11A1     0.798674     2A2     0.929520
      12A1     0.929520     6B1     1.147930     6B2     1.147930
      13A1     1.241896     7B2     1.591988     7B1     1.591988
      14A1     1.949967     8B2     2.254694     8B1     2.254694
      15A1     2.265565     3A2     2.442932    16A1     2.442933
       9B1     2.634421     9B2     2.634421    17A1     2.666615
       4A2     2.701831    18A1     2.701835    10B1     3.013416
      10B2     3.013416    19A1     3.216699    11B1     3.504969
      11B2     3.504969    12B2     3.765192    12B1     3.765192
       5A2     4.100581    20A1     4.100584    21A1     4.425759
      13B1     4.901782    13B2     4.901782     6A2     5.102343
      22A1     5.102347    23A1     5.421838    14B2     6.283872
      14B1     6.283872    24A1     6.553412    25A1     7.553816
      26A1    18.501053

    Final Occupation by Irrep:
             A1    A2    B1    B2
    DOCC [     3,    0,    1,    1 ]
    SOCC [     2,    0,    0,    0 ]
    NA   [     5,    0,    1,    1 ]
    NB   [     3,    0,    1,    1 ]

  @DF-UKS Final Energy:   -91.20022840082339

   => Energetics <=

    Nuclear Repulsion Energy =             30.0775475725162345
    One-Electron Energy =                -175.7856199495381020
    Two-Electron Energy =                  64.6403599365827262
    DFT Exchange-Correlation Energy =     -10.1325159603842589
    Empirical Dispersion Energy =           0.0000000000000000
    VV10 Nonlocal Energy =                  0.0000000000000000
    Total Energy =                        -91.2002284008233914

  UHF NO Occupations:
  HONO-2 :    1 B1 1.9997506
  HONO-1 :    4 A1 1.0000000
  HONO-0 :    5 A1 1.0000000
  LUNO+0 :    2 B2 0.0002494
  LUNO+1 :    2 B1 0.0002494
  LUNO+2 :    6 A1 0.0002485
  LUNO+3 :    7 A1 0.0000011

Computation Completed

Properties will be evaluated at   0.000000,   0.000000,   0.000000 [a0]

Properties computed using the B3LYP density matrix

 Multipole Moments:

 ------------------------------------------------------------------------------------
     Multipole            Electronic (a.u.)      Nuclear  (a.u.)        Total (a.u.)
 ------------------------------------------------------------------------------------

 L = 1.  Multiply by 2.5417464519 to convert [e a0] to [Debye]
 Dipole X            :          0.0000000            0.0000000            0.0000000
 Dipole Y            :          0.0000000            0.0000000            0.0000000
 Dipole Z            :          0.0232595            0.0009905            0.0242499
 Magnitude           :                                                    0.0242499

 L = 2.  Multiply by 1.3450342976 to convert [e a0^2] to [Debye ang]
 Quadrupole XX       :         -5.2743070            0.0000000           -5.2743070
 Quadrupole XY       :          0.0000000            0.0000000            0.0000000
 Quadrupole XZ       :          0.0000000            0.0000000            0.0000000
 Quadrupole YY       :         -5.2743070            0.0000000           -5.2743070
 Quadrupole YZ       :          0.0000000            0.0000000            0.0000000
 Quadrupole ZZ       :        -10.4249283            6.2996973           -4.1252310
 Traceless XX        :          1.7168738           -2.0998991           -0.3830253
 Traceless YY        :          1.7168738           -2.0998991           -0.3830253
 Traceless ZZ        :         -3.4337475            4.1997982            0.7660507

 ------------------------------------------------------------------------------------
  ==> Computing MBIS Charges <==

  Electron Count from Grid (Expected Number): 12.00000 (12.00000)
  Difference: -0.00000

  MBIS Charges: (a.u.)
   Center  Symbol  Z      Pop.       Charge
      1       N    7    6.618641    0.381359
      2       C    6    5.381358    0.618642

  MBIS Dipoles: [e a0]
   Center  Symbol  Z        X           Y           Z
      1       N    7    0.000000    0.000000   -0.383329
      2       C    6   -0.000000   -0.000000    0.188126

  MBIS Quadrupoles: [e a0^2]
   Center  Symbol  Z      XX        XY        XZ        YY        YZ        ZZ
      1       N    7   -2.7509    0.0000    0.0000   -2.7509    0.0000   -2.7042
      2       C    6   -2.5234    0.0000    0.0000   -2.5234    0.0000   -2.7062

  MBIS Octupoles: [e a0^3]
   Center  Symbol  Z      XXX       XXY       XXZ       XYY       XYZ       XZZ       YYY       YYZ       YZZ       ZZZ
      1       N    7   -0.0000   -0.0000   -0.1935   -0.0000   -0.0000   -0.0000   -0.0000   -0.1935   -0.0000   -0.2587
      2       C    6   -0.0000   -0.0000    0.0687   -0.0000   -0.0000   -0.0000    0.0000    0.0687    0.0000   -0.2584

  MBIS Radial Moments:
   Center  Symbol  Z      [a0^2]      [a0^3]      [a0^4]
      1       N    7    8.206135   14.406072   30.307129
      2       C    6    7.752877   15.264515   36.098897

  MBIS Valence Widths: [a0]
   Center  Symbol  Z     Width
      1       N    7    0.369674
      2       C    6    0.413823

*** tstop() called on Mac.lan at Sun Aug 10 18:33:35 2025
Module time:
	user time   =       4.27 seconds =       0.07 minutes
	system time =       1.87 seconds =       0.03 minutes
	total time  =          0 seconds =       0.00 minutes
Total time:
	user time   =      20.55 seconds =       0.34 minutes
	system time =       4.28 seconds =       0.07 minutes
	total time  =          2 seconds =       0.03 minutes

    Psi4 stopped on: Sunday, 10 August 2025 06:33PM
    Psi4 wall time for execution: 0:00:02.46

*** Psi4 exiting successfully. Buy a developer a beer!
