                               Psi4 1.9.1 release

  ==> Input File <==

--------------------------------------------------------------------------
molecule {
1 3
O           0.000000           0.000000           0.000000
H           0.000000           0.000000           1.423989
}

set {
basis              cc-pvtz
reference          uks
maxiter            500
DAMPING_PERCENTAGE 1
E_CONVERGENCE      1.0E-8
D_CONVERGENCE      1.0E-8
DIIS_MAX_VECS      400
MBIS_MAXITER       8000
guess              read
}

E, wfn = energy('b3lyp', restart_file='last_wfn', return_wfn=True)
properties('b3lyp','MBIS_CHARGES', wfn=wfn)
wfn.to_file('last_wfn')
--------------------------------------------------------------------------

    Molecular point group: c2v
  Charge       = 1
  Multiplicity = 3
  Basis Set: CC-PVTZ
    Blend: CC-PVTZ
  Basis Set: (CC-PVTZ AUX)
    Blend: CC-PVTZ-JKFIT
  @DF-UKS Final Energy:   -75.24068951028474
    Total Energy =                        -75.2406895102847244
 Dipole X            :          0.0000000            0.0000000            0.0000000
 Dipole Y            :          0.0000000            0.0000000            0.0000000
 Dipole Z            :          0.0807908            1.2554127            1.3362035
 Magnitude           :                                                    1.3362035
    Molecular point group: c2v

    Geometry (in Angstrom), charge = 1, multiplicity = 3:

       Center              X                  Y                   Z               Mass
    ------------   -----------------  -----------------  -----------------  -----------------
         O            0.000000000000     0.000000000000    -0.084405912765    15.994914619570
         H            0.000000000000     0.000000000000     1.339583087235     1.007825032230

  Charge       = 1
  Multiplicity = 3
  Basis Set: CC-PVTZ
    Blend: CC-PVTZ
  Basis Set: (CC-PVTZ AUX)
    Blend: CC-PVTZ-JKFIT

    Orbital Energies [Eh]
    ---------------------

    Alpha Occupied:

       1A1   -19.772050     2A1    -1.475554     1B1    -0.894808
       1B2    -0.894808     3A1    -0.879880

    Alpha Virtual:

       4A1    -0.448390     5A1    -0.029649     2B1     0.133959
       2B2     0.133959     6A1     0.230939     3B2     0.335923
       3B1     0.335923     7A1     0.411884     8A1     0.677149
       9A1     0.973347     1A2     0.973347     4B2     1.108408
       4B1     1.108408    10A1     1.539449    11A1     1.987119
      12A1     2.680761     2A2     2.784348    13A1     2.784351
       5B1     2.804474     5B2     2.804474     6B1     3.114999
       6B2     3.114999     7B1     3.254879     7B2     3.254879
      14A1     3.376112    15A1     4.126085     8B1     4.552929
       8B2     4.552929     3A2     4.592187    16A1     4.592187
       9B1     4.837322     9B2     4.837322    17A1     5.233425
       4A2     5.558932    18A1     5.558933    10B2     5.791959
      10B1     5.791959    19A1     6.434916    20A1     6.985589

    Beta Occupied:

       1A1   -19.713714     2A1    -1.306829     3A1    -0.827627

    Beta Virtual:

       1B1    -0.592520     1B2    -0.592520     4A1    -0.449401
       5A1    -0.037580     2B1     0.179240     2B2     0.179240
       6A1     0.254454     3B1     0.355577     3B2     0.355577
       7A1     0.445129     8A1     0.706541     1A2     1.086670
       9A1     1.086670     4B2     1.164806     4B1     1.164806
      10A1     1.568484    11A1     1.957945    12A1     2.695517
       2A2     2.758875    13A1     2.758879     5B1     2.821040
       5B2     2.821040     6B1     3.210730     6B2     3.210730
       7B1     3.243065     7B2     3.243065    14A1     3.370251
      15A1     4.154196    16A1     4.694489     3A2     4.694490
       8B1     4.704250     8B2     4.704250     9B1     4.914449
       9B2     4.914449    17A1     5.292203     4A2     5.773846
      18A1     5.773846    10B1     5.908582    10B2     5.908582
      19A1     6.504495    20A1     7.095516

    Final Occupation by Irrep:
             A1    A2    B1    B2
    DOCC [     3,    0,    0,    0 ]
    SOCC [     0,    0,    1,    1 ]
    NA   [     3,    0,    1,    1 ]
    NB   [     3,    0,    0,    0 ]

  @DF-UKS Final Energy:   -75.24068951022542

   => Energetics <=

    Nuclear Repulsion Energy =              2.9729286429600230
    One-Electron Energy =                -105.7717266045893041
    Two-Electron Energy =                  34.3594170064403741
    DFT Exchange-Correlation Energy =      -6.8013085550365187
    Empirical Dispersion Energy =           0.0000000000000000
    VV10 Nonlocal Energy =                  0.0000000000000000
    Total Energy =                        -75.2406895102254225

  UHF NO Occupations:
  HONO-2 :    3 A1 1.9898108
  HONO-1 :    1 B2 1.0000000
  HONO-0 :    1 B1 1.0000000
  LUNO+0 :    4 A1 0.0101892
  LUNO+1 :    5 A1 0.0008975
  LUNO+2 :    6 A1 0.0000014
  LUNO+3 :    7 A1 0.0000000

Computation Completed

Properties will be evaluated at   0.000000,   0.000000,   0.000000 [a0]

Properties computed using the B3LYP density matrix

 Multipole Moments:

 ------------------------------------------------------------------------------------
     Multipole            Electronic (a.u.)      Nuclear  (a.u.)        Total (a.u.)
 ------------------------------------------------------------------------------------

 L = 1.  Multiply by 2.5417464519 to convert [e a0] to [Debye]
 Dipole X            :          0.0000000            0.0000000            0.0000000
 Dipole Y            :          0.0000000            0.0000000            0.0000000
 Dipole Z            :          0.0807908            1.2554127            1.3362035
 Magnitude           :                                                    1.3362035

 L = 2.  Multiply by 1.3450342976 to convert [e a0^2] to [Debye ang]
 Quadrupole XX       :         -3.2213984            0.0000000           -3.2213984
 Quadrupole XY       :          0.0000000            0.0000000            0.0000000
 Quadrupole XZ       :          0.0000000            0.0000000            0.0000000
 Quadrupole YY       :         -3.2213984            0.0000000           -3.2213984
 Quadrupole YZ       :          0.0000000            0.0000000            0.0000000
 Quadrupole ZZ       :         -6.2080069            6.6117469            0.4037400
 Traceless XX        :          0.9955362           -2.2039156           -1.2083795
 Traceless YY        :          0.9955362           -2.2039156           -1.2083795
 Traceless ZZ        :         -1.9910724            4.4078313            2.4167589

 ------------------------------------------------------------------------------------
  ==> Computing MBIS Charges <==

  Electron Count from Grid (Expected Number):  8.00000 ( 8.00000)
  Difference: -0.00000

  MBIS Charges: (a.u.)
   Center  Symbol  Z      Pop.       Charge
      1       O    8    7.583813    0.416187
      2       H    1    0.416187    0.583813

  MBIS Dipoles: [e a0]
   Center  Symbol  Z        X           Y           Z
      1       O    8   -0.000000   -0.000000   -0.154065
      2       H    1    0.000000   -0.000000    0.078761

  MBIS Quadrupoles: [e a0^2]
   Center  Symbol  Z      XX        XY        XZ        YY        YZ        ZZ
      1       O    8   -2.9631    0.0000   -0.0000   -2.9631    0.0000   -3.5594
      2       H    1   -0.2583    0.0000    0.0000   -0.2583   -0.0000   -0.2366

  MBIS Octupoles: [e a0^3]
   Center  Symbol  Z      XXX       XXY       XXZ       XYY       XYZ       XZZ       YYY       YYZ       YZZ       ZZZ
      1       O    8   -0.0000   -0.0000   -0.1301   -0.0000    0.0000   -0.0000    0.0000   -0.1301    0.0000   -0.5146
      2       H    1    0.0000    0.0000    0.0394    0.0000   -0.0000    0.0000    0.0000    0.0394    0.0000    0.1111

  MBIS Radial Moments:
   Center  Symbol  Z      [a0^2]      [a0^3]      [a0^4]
      1       O    8    9.485589   16.644330   34.917569
      2       H    1    0.753164    1.407436    3.124712

  MBIS Valence Widths: [a0]
   Center  Symbol  Z     Width
      1       O    8    0.366457
      2       H    1    0.395293

*** tstop() called on Mac.lan at Sun Aug 10 18:30:30 2025
Module time:
	user time   =       2.44 seconds =       0.04 minutes
	system time =       2.02 seconds =       0.03 minutes
	total time  =          0 seconds =       0.00 minutes
Total time:
	user time   =      12.46 seconds =       0.21 minutes
	system time =       4.60 seconds =       0.08 minutes
	total time  =          1 seconds =       0.02 minutes

    Psi4 stopped on: Sunday, 10 August 2025 06:30PM
    Psi4 wall time for execution: 0:00:01.67

*** Psi4 exiting successfully. Buy a developer a beer!
