                               Psi4 1.9.1 release

  ==> Input File <==

--------------------------------------------------------------------------
molecule {
1 3
N           0.000000           0.000000           0.000000
C           0.000000           0.000000           1.598519
}

set {
basis              cc-pvtz
reference          uks
maxiter            500
DAMPING_PERCENTAGE 1
E_CONVERGENCE      1.0E-8
D_CONVERGENCE      1.0E-8
DIIS_MAX_VECS      400
MBIS_MAXITER       8000
guess              read
}

E, wfn = energy('b3lyp', restart_file='last_wfn', return_wfn=True)
properties('b3lyp','MBIS_CHARGES', wfn=wfn)
wfn.to_file('last_wfn')
--------------------------------------------------------------------------

    Molecular point group: c2v
  Charge       = 1
  Multiplicity = 3
  Basis Set: CC-PVTZ
    Blend: CC-PVTZ
  Basis Set: (CC-PVTZ AUX)
    Blend: CC-PVTZ-JKFIT
  @DF-UKS Final Energy:   -92.15084018792028
    Total Energy =                        -92.1508401879202808
 Dipole X            :          0.0000000            0.0000000            0.0000000
 Dipole Y            :          0.0000000            0.0000000            0.0000000
 Dipole Z            :          0.5475352            0.0021426            0.5496778
 Magnitude           :                                                    0.5496778
    Molecular point group: c2v

    Geometry (in Angstrom), charge = 1, multiplicity = 3:

       Center              X                  Y                   Z               Mass
    ------------   -----------------  -----------------  -----------------  -----------------
         N            0.000000000000     0.000000000000    -0.737690782126    14.003074004430
         C            0.000000000000     0.000000000000     0.860828217874    12.000000000000

  Charge       = 1
  Multiplicity = 3
  Basis Set: CC-PVTZ
    Blend: CC-PVTZ
  Basis Set: (CC-PVTZ AUX)
    Blend: CC-PVTZ-JKFIT

    Orbital Energies [Eh]
    ---------------------

    Alpha Occupied:

       1A1   -14.861833     2A1   -10.781195     3A1    -1.243946
       4A1    -0.930520     5A1    -0.757709     1B1    -0.741705
       1B2    -0.716016

    Alpha Virtual:

       2B1    -0.500444     2B2    -0.461045     6A1    -0.284888
       7A1    -0.002255     3B1     0.023192     3B2     0.039388
       8A1     0.043159     9A1     0.154531     4B1     0.185016
       4B2     0.196489     1A2     0.323375    10A1     0.323648
       5B1     0.356795     5B2     0.379832    11A1     0.532986
      12A1     0.710463     2A2     0.710481    13A1     0.717406
       6B1     0.982585     6B2     1.001364    14A1     1.164425
       7B1     1.571719     7B2     1.604929    15A1     1.807025
       8B1     2.193607     8B2     2.218519    16A1     2.260043
       3A2     2.262972     9B1     2.292111     9B2     2.292418
      17A1     2.313712    10B1     2.510149    10B2     2.537433
      18A1     2.540976     4A2     2.541534    19A1     2.730671
      11B1     2.737797    11B2     2.766477    20A1     2.854982
      12B1     3.456567    12B2     3.456601    21A1     3.561825
       5A2     3.563194    22A1     3.620440    13B1     3.875906
      13B2     3.897941    23A1     3.996897     6A2     3.997044
      24A1     4.234004    14B1     4.388598    14B2     4.408032
      25A1     5.120994    26A1     6.441930

    Beta Occupied:

       1A1   -14.820732     2A1   -10.779133     3A1    -1.147618
       4A1    -0.853558     1B2    -0.666172

    Beta Virtual:

       5A1    -0.585369     1B1    -0.563735     2B2    -0.454393
       2B1    -0.416131     6A1    -0.216516     7A1     0.017656
       3B2     0.023655     3B1     0.034246     8A1     0.064399
       9A1     0.188194     4B2     0.231416     4B1     0.236579
       1A2     0.317712    10A1     0.321090     5B2     0.396075
       5B1     0.405420    11A1     0.576949    12A1     0.751252
       2A2     0.771745    13A1     0.773170     6B2     1.041293
       6B1     1.045999    14A1     1.221816     7B2     1.568499
       7B1     1.589532    15A1     1.850696     8B2     2.246450
       8B1     2.259044     9B2     2.272576     3A2     2.272849
       9B1     2.274265    16A1     2.276888    17A1     2.352145
       4A2     2.517167    18A1     2.525192    10B2     2.572601
      10B1     2.588144    19A1     2.798188    11B2     2.799051
      11B1     2.811881    20A1     2.901271    12B2     3.547888
      12B1     3.548269     5A2     3.644834    21A1     3.646492
      22A1     3.677169    13B2     3.970388    13B1     3.979758
       6A2     4.121477    23A1     4.124298    24A1     4.325267
      14B2     4.494254    14B1     4.501069    25A1     5.192119
      26A1     6.495677

    Final Occupation by Irrep:
             A1    A2    B1    B2
    DOCC [     4,    0,    0,    1 ]
    SOCC [     1,    0,    1,    0 ]
    NA   [     5,    0,    1,    1 ]
    NB   [     4,    0,    0,    1 ]

  @DF-UKS Final Energy:   -92.15084017597360

   => Energetics <=

    Nuclear Repulsion Energy =             13.9037714585438152
    One-Electron Energy =                -147.0431623723843586
    Two-Electron Energy =                  50.3706951270652183
    DFT Exchange-Correlation Energy =      -9.3821443891982774
    Empirical Dispersion Energy =           0.0000000000000000
    VV10 Nonlocal Energy =                  0.0000000000000000
    Total Energy =                        -92.1508401759735989

  UHF NO Occupations:
  HONO-2 :    1 B2 1.8455648
  HONO-1 :    5 A1 1.0000000
  HONO-0 :    1 B1 1.0000000
  LUNO+0 :    2 B2 0.1544352
  LUNO+1 :    6 A1 0.0060769
  LUNO+2 :    7 A1 0.0005360
  LUNO+3 :    8 A1 0.0000010

Computation Completed

Properties will be evaluated at   0.000000,   0.000000,   0.000000 [a0]

Properties computed using the B3LYP density matrix

 Multipole Moments:

 ------------------------------------------------------------------------------------
     Multipole            Electronic (a.u.)      Nuclear  (a.u.)        Total (a.u.)
 ------------------------------------------------------------------------------------

 L = 1.  Multiply by 2.5417464519 to convert [e a0] to [Debye]
 Dipole X            :          0.0000000            0.0000000            0.0000000
 Dipole Y            :          0.0000000            0.0000000            0.0000000
 Dipole Z            :          0.5475330            0.0021426            0.5496757
 Magnitude           :                                                    0.5496757

 L = 2.  Multiply by 1.3450342976 to convert [e a0^2] to [Debye ang]
 Quadrupole XX       :         -6.1359869            0.0000000           -6.1359869
 Quadrupole XY       :          0.0000000            0.0000000            0.0000000
 Quadrupole XZ       :          0.0000000            0.0000000            0.0000000
 Quadrupole YY       :         -7.3005279            0.0000000           -7.3005279
 Quadrupole YZ       :          0.0000000            0.0000000            0.0000000
 Quadrupole ZZ       :        -32.9361655           29.4808013           -3.4553642
 Traceless XX        :          9.3215732           -9.8269338           -0.5053606
 Traceless YY        :          8.1570322           -9.8269338           -1.6699016
 Traceless ZZ        :        -17.4786054           19.6538675            2.1752621

 ------------------------------------------------------------------------------------
  ==> Computing MBIS Charges <==

  Electron Count from Grid (Expected Number): 12.00000 (12.00000)
  Difference: -0.00000

  MBIS Charges: (a.u.)
   Center  Symbol  Z      Pop.       Charge
      1       N    7    6.693454    0.306546
      2       C    6    5.306546    0.693454

  MBIS Dipoles: [e a0]
   Center  Symbol  Z        X           Y           Z
      1       N    7    0.000000    0.000000   -0.260896
      2       C    6   -0.000000    0.000000    0.109843

  MBIS Quadrupoles: [e a0^2]
   Center  Symbol  Z      XX        XY        XZ        YY        YZ        ZZ
      1       N    7   -3.3291    0.0000   -0.0000   -3.7701   -0.0000   -3.5804
      2       C    6   -2.8068    0.0000    0.0000   -3.5304    0.0000   -3.3905

  MBIS Octupoles: [e a0^3]
   Center  Symbol  Z      XXX       XXY       XXZ       XYY       XYZ       XZZ       YYY       YYZ       YZZ       ZZZ
      1       N    7   -0.0000   -0.0000   -0.1862    0.0000    0.0000   -0.0000   -0.0000   -0.3711   -0.0000   -0.9235
      2       C    6   -0.0000   -0.0000    0.1638    0.0000   -0.0000   -0.0000    0.0000    0.2992    0.0000    0.6286

  MBIS Radial Moments:
   Center  Symbol  Z      [a0^2]      [a0^3]      [a0^4]
      1       N    7   10.679652   21.383347   51.057968
      2       C    6    9.727765   21.520288   56.664469

  MBIS Valence Widths: [a0]
   Center  Symbol  Z     Width
      1       N    7    0.423603
      2       C    6    0.477095

*** tstop() called on Mac.lan at Sun Aug 10 18:34:45 2025
Module time:
	user time   =       3.79 seconds =       0.06 minutes
	system time =       2.27 seconds =       0.04 minutes
	total time  =          0 seconds =       0.00 minutes
Total time:
	user time   =      21.15 seconds =       0.35 minutes
	system time =       4.77 seconds =       0.08 minutes
	total time  =          2 seconds =       0.03 minutes

    Psi4 stopped on: Sunday, 10 August 2025 06:34PM
    Psi4 wall time for execution: 0:00:02.52

*** Psi4 exiting successfully. Buy a developer a beer!
