                               Psi4 1.9.1 release

  ==> Input File <==

--------------------------------------------------------------------------
molecule {
1 2
N           0.000000           0.000000           0.000000
N           0.000000           0.000000           1.088991
}

set {
basis              cc-pvtz
reference          uks
maxiter            500
DAMPING_PERCENTAGE 1
E_CONVERGENCE      1.0E-8
D_CONVERGENCE      1.0E-8
DIIS_MAX_VECS      400
MBIS_MAXITER       8000
guess              read
}

E, wfn = energy('b3lyp', restart_file='last_wfn', return_wfn=True)
properties('b3lyp','MBIS_CHARGES', wfn=wfn)
wfn.to_file('last_wfn')
--------------------------------------------------------------------------

    Molecular point group: d2h
  Charge       = 1
  Multiplicity = 2
  Basis Set: CC-PVTZ
    Blend: CC-PVTZ
  Basis Set: (CC-PVTZ AUX)
    Blend: CC-PVTZ-JKFIT
  @DF-UKS Final Energy:  -108.98743624749912
    Total Energy =                       -108.9874362474991187
 Dipole X            :          0.0000000            0.0000000            0.0000000
 Dipole Y            :          0.0000000            0.0000000            0.0000000
 Dipole Z            :          0.0000000            0.0000000            0.0000000
 Magnitude           :                                                    0.0000000
    Molecular point group: d2h

    Geometry (in Angstrom), charge = 1, multiplicity = 2:

       Center              X                  Y                   Z               Mass
    ------------   -----------------  -----------------  -----------------  -----------------
         N            0.000000000000     0.000000000000    -0.544495500000    14.003074004430
         N            0.000000000000     0.000000000000     0.544495500000    14.003074004430

  Charge       = 1
  Multiplicity = 2
  Basis Set: CC-PVTZ
    Blend: CC-PVTZ
  Basis Set: (CC-PVTZ AUX)
    Blend: CC-PVTZ-JKFIT

    Orbital Energies [Eh]
    ---------------------

    Alpha Occupied:

       1Ag   -14.916525     1B1u  -14.914577     2Ag    -1.583569
       2B1u   -1.013583     3Ag    -0.908747     1B3u   -0.893669
       1B2u   -0.893669

    Alpha Virtual:

       1B2g   -0.442406     1B3g   -0.442406     3B1u    0.004840
       2B2u    0.074545     2B3u    0.074545     4Ag     0.101920
       5Ag     0.126453     2B3g    0.221322     2B2g    0.221322
       4B1u    0.266282     1B1g    0.466469     6Ag     0.466469
       5B1u    0.550937     3B3u    0.699996     3B2u    0.699996
       6B1u    0.901001     1Au     0.901001     7Ag     1.293998
       3B3g    1.310319     3B2g    1.310319     7B1u    1.516449
       4B2u    2.317553     4B3u    2.317553     8Ag     2.482481
       4B2g    2.667697     4B3g    2.667697     8B1u    2.916442
       2B1g    3.041971     9Ag     3.041971     5B3u    3.150855
       5B2u    3.150855     6B3u    3.188667     6B2u    3.188667
      10Ag     3.486731     5B2g    3.675674     5B3g    3.675674
       3B1g    3.909088    11Ag     3.909091     6B2g    4.006874
       6B3g    4.006874     2Au     4.047722     9B1u    4.047725
      10B1u    4.192831    11B1u    4.501504     3Au     4.501504
       7B3u    4.544368     7B2u    4.544368    12Ag     4.662691
      12B1u    5.238769     7B2g    5.994244     7B3g    5.994244
      13Ag     6.054710    13B1u   15.787243

    Beta Occupied:

       1Ag   -14.903135     1B1u  -14.901469     2Ag    -1.553790
       2B1u   -0.921522     1B3u   -0.880559     1B2u   -0.880559

    Beta Virtual:

       3Ag    -0.728350     1B2g   -0.418867     1B3g   -0.418867
       3B1u    0.015184     2B2u    0.078617     2B3u    0.078617
       4Ag     0.118849     5Ag     0.154135     2B3g    0.226980
       2B2g    0.226980     4B1u    0.328677     1B1g    0.470406
       6Ag     0.470406     5B1u    0.557421     3B3u    0.731949
       3B2u    0.731949     1Au     0.911400     6B1u    0.911400
       7Ag     1.334307     3B3g    1.336382     3B2g    1.336382
       7B1u    1.555595     4B2u    2.328133     4B3u    2.328133
       8Ag     2.518720     4B2g    2.677162     4B3g    2.677162
       8B1u    2.967049     2B1g    3.059910     9Ag     3.059911
       5B3u    3.184838     5B2u    3.184838     6B3u    3.194317
       6B2u    3.194317    10Ag     3.561960     5B2g    3.683141
       5B3g    3.683141     3B1g    3.926361    11Ag     3.926364
       2Au     4.061522     9B1u    4.061525     6B2g    4.069168
       6B3g    4.069168    10B1u    4.242382    11B1u    4.526478
       3Au     4.526478     7B3u    4.599363     7B2u    4.599363
      12Ag     4.699609    12B1u    5.301312     7B2g    6.027756
       7B3g    6.027756    13Ag     6.091901    13B1u   15.806073

    Final Occupation by Irrep:
             Ag   B1g   B2g   B3g    Au   B1u   B2u   B3u
    DOCC [     2,    0,    0,    0,    0,    2,    1,    1 ]
    SOCC [     1,    0,    0,    0,    0,    0,    0,    0 ]
    NA   [     3,    0,    0,    0,    0,    2,    1,    1 ]
    NB   [     2,    0,    0,    0,    0,    2,    1,    1 ]

  @DF-UKS Final Energy:  -108.98743624755886

   => Energetics <=

    Nuclear Repulsion Energy =             23.8107416157066432
    One-Electron Energy =                -188.6932406167042870
    Two-Electron Energy =                  66.6459914668455582
    DFT Exchange-Correlation Energy =     -10.7509287134067719
    Empirical Dispersion Energy =           0.0000000000000000
    VV10 Nonlocal Energy =                  0.0000000000000000
    Total Energy =                       -108.9874362475588612

  UHF NO Occupations:
  HONO-2 :    2 Ag 1.9998942
  HONO-1 :    2B1u 1.9984248
  HONO-0 :    3 Ag 1.0000000
  LUNO+0 :    3B1u 0.0015752
  LUNO+1 :    4 Ag 0.0001058
  LUNO+2 :    2B3u 0.0000899
  LUNO+3 :    2B2u 0.0000899

Computation Completed

Properties will be evaluated at   0.000000,   0.000000,   0.000000 [a0]

Properties computed using the B3LYP density matrix

 Multipole Moments:

 ------------------------------------------------------------------------------------
     Multipole            Electronic (a.u.)      Nuclear  (a.u.)        Total (a.u.)
 ------------------------------------------------------------------------------------

 L = 1.  Multiply by 2.5417464519 to convert [e a0] to [Debye]
 Dipole X            :          0.0000000            0.0000000            0.0000000
 Dipole Y            :          0.0000000            0.0000000            0.0000000
 Dipole Z            :          0.0000000            0.0000000            0.0000000
 Magnitude           :                                                    0.0000000

 L = 2.  Multiply by 1.3450342976 to convert [e a0^2] to [Debye ang]
 Quadrupole XX       :         -6.1327953            0.0000000           -6.1327953
 Quadrupole XY       :          0.0000000            0.0000000            0.0000000
 Quadrupole XZ       :          0.0000000            0.0000000            0.0000000
 Quadrupole YY       :         -6.1327953            0.0000000           -6.1327953
 Quadrupole YZ       :          0.0000000            0.0000000            0.0000000
 Quadrupole ZZ       :        -19.2438501           14.8222577           -4.4215924
 Traceless XX        :          4.3703516           -4.9407526           -0.5704010
 Traceless YY        :          4.3703516           -4.9407526           -0.5704010
 Traceless ZZ        :         -8.7407032            9.8815051            1.1408019

 ------------------------------------------------------------------------------------
  ==> Computing MBIS Charges <==

  Electron Count from Grid (Expected Number): 13.00000 (13.00000)
  Difference: -0.00000

  MBIS Charges: (a.u.)
   Center  Symbol  Z      Pop.       Charge
      1       N    7    6.500000    0.500000
      2       N    7    6.500000    0.500000

  MBIS Dipoles: [e a0]
   Center  Symbol  Z        X           Y           Z
      1       N    7   -0.000000    0.000000   -0.221271
      2       N    7    0.000000    0.000000    0.221271

  MBIS Quadrupoles: [e a0^2]
   Center  Symbol  Z      XX        XY        XZ        YY        YZ        ZZ
      1       N    7   -3.0664    0.0000   -0.0000   -3.0664    0.0000   -3.1955
      2       N    7   -3.0664    0.0000    0.0000   -3.0664   -0.0000   -3.1955

  MBIS Octupoles: [e a0^3]
   Center  Symbol  Z      XXX       XXY       XXZ       XYY       XYZ       XZZ       YYY       YYZ       YZZ       ZZZ
      1       N    7   -0.0000   -0.0000   -0.1947    0.0000    0.0000    0.0000   -0.0000   -0.1947   -0.0000   -0.4422
      2       N    7   -0.0000   -0.0000    0.1947   -0.0000   -0.0000    0.0000   -0.0000    0.1947    0.0000    0.4422

  MBIS Radial Moments:
   Center  Symbol  Z      [a0^2]      [a0^3]      [a0^4]
      1       N    7    9.328310   17.656723   39.859501
      2       N    7    9.328310   17.656723   39.859501

  MBIS Valence Widths: [a0]
   Center  Symbol  Z     Width
      1       N    7    0.402685
      2       N    7    0.402685

*** tstop() called on Mac.lan at Sun Aug 10 18:24:05 2025
Module time:
	user time   =       3.28 seconds =       0.05 minutes
	system time =       2.34 seconds =       0.04 minutes
	total time  =          0 seconds =       0.00 minutes
Total time:
	user time   =      20.18 seconds =       0.34 minutes
	system time =       4.56 seconds =       0.08 minutes
	total time  =          2 seconds =       0.03 minutes

    Psi4 stopped on: Sunday, 10 August 2025 06:24PM
    Psi4 wall time for execution: 0:00:02.51

*** Psi4 exiting successfully. Buy a developer a beer!
