                               Psi4 1.9.1 release

  ==> Input File <==

--------------------------------------------------------------------------
molecule {
1 2
O           0.000000           0.000000           0.000000
O           0.000000           0.000000           1.334349
}

set {
basis              cc-pvtz
reference          uks
maxiter            500
DAMPING_PERCENTAGE 1
E_CONVERGENCE      1.0E-8
D_CONVERGENCE      1.0E-8
DIIS_MAX_VECS      400
MBIS_MAXITER       8000
guess              read
}

E, wfn = energy('b3lyp', restart_file='last_wfn', return_wfn=True)
properties('b3lyp','MBIS_CHARGES', wfn=wfn)
wfn.to_file('last_wfn')
--------------------------------------------------------------------------

    Molecular point group: d2h
  Charge       = 1
  Multiplicity = 2
  Basis Set: CC-PVTZ
    Blend: CC-PVTZ
  Basis Set: (CC-PVTZ AUX)
    Blend: CC-PVTZ-JKFIT
  @DF-UKS Final Energy:  -149.85405828399689
    Total Energy =                       -149.8540582839968920
 Dipole X            :          0.0000000            0.0000000            0.0000000
 Dipole Y            :          0.0000000            0.0000000            0.0000000
 Dipole Z            :          0.0000000            0.0000000            0.0000000
 Magnitude           :                                                    0.0000000
    Molecular point group: d2h

    Geometry (in Angstrom), charge = 1, multiplicity = 2:

       Center              X                  Y                   Z               Mass
    ------------   -----------------  -----------------  -----------------  -----------------
         O            0.000000000000     0.000000000000    -0.667174500000    15.994914619570
         O            0.000000000000     0.000000000000     0.667174500000    15.994914619570

  Charge       = 1
  Multiplicity = 2
  Basis Set: CC-PVTZ
    Blend: CC-PVTZ
  Basis Set: (CC-PVTZ AUX)
    Blend: CC-PVTZ-JKFIT

    Orbital Energies [Eh]
    ---------------------

    Alpha Occupied:

       1Ag   -19.824592     1B1u  -19.824432     2Ag    -1.673996
       2B1u   -1.308849     3Ag    -0.975548     1B3u   -0.972982
       1B2u   -0.929355     1B2g   -0.793711

    Alpha Virtual:

       1B3g   -0.670979     3B1u   -0.393136     4B1u    0.154643
       2B3u    0.158879     2B2u    0.163985     4Ag     0.241833
       2B2g    0.284662     5Ag     0.289499     2B3g    0.291484
       3B2u    0.815092     3B3u    0.817650     5B1u    0.824859
       1B1g    0.837986     6Ag     0.839268     1Au     1.159211
       6B1u    1.160784     7Ag     1.504891     3B2g    1.670179
       3B3g    1.671292     7B1u    1.785805     4B3u    2.924753
       4B2u    2.941803     8Ag     3.013132     4B2g    3.159856
       4B3g    3.175144     8B1u    4.062227     5B2u    4.164393
       5B3u    4.168785     2B1g    4.221676     9Ag     4.223021
      10Ag     4.290445     6B3u    4.508636     6B2u    4.508916
       5B2g    4.637160     5B3g    4.637449     2Au     4.982774
       9B1u    4.984480     3B1g    5.530916    11Ag     5.534964
       6B2g    5.543132     6B3g    5.549572     3Au     5.720194
      10B1u    5.723727     7B3u    5.748321     7B2u    5.757464
      11B1u    5.791410    12B1u    5.958857    12Ag     6.209895
       7B2g    6.456896     7B3g    6.457801    13Ag     7.066061
      13B1u    9.450033

    Beta Occupied:

       1Ag   -19.808315     1B1u  -19.808098     2Ag    -1.641951
       2B1u   -1.261712     3Ag    -0.956990     1B2u   -0.915344
       1B3u   -0.871505

    Beta Virtual:

       1B3g   -0.653634     1B2g   -0.605350     3B1u   -0.371237
       4B1u    0.160174     2B2u    0.168640     2B3u    0.189608
       4Ag     0.246180     2B3g    0.296142     5Ag     0.300320
       2B2g    0.314498     3B2u    0.816633     5B1u    0.840379
       3B3u    0.842022     1B1g    0.861139     6Ag     0.861145
       1Au     1.190195     6B1u    1.190372     7Ag     1.521541
       3B3g    1.675184     3B2g    1.701457     7B1u    1.795473
       4B2u    2.952514     4B3u    2.990061     8Ag     3.022897
       4B3g    3.187214     4B2g    3.227715     8B1u    4.079227
       5B2u    4.168433     5B3u    4.199370     9Ag     4.240951
       2B1g    4.244939    10Ag     4.312223     6B2u    4.546592
       6B3u    4.546637     5B3g    4.675827     5B2g    4.675847
       2Au     5.011480     9B1u    5.011594     6B3g    5.556369
      11Ag     5.590356     3B1g    5.590493     6B2g    5.592476
       7B2u    5.764396    10B1u    5.769275     3Au     5.777027
       7B3u    5.803338    11B1u    5.817559    12B1u    5.978455
      12Ag     6.224128     7B3g    6.461981     7B2g    6.495432
      13Ag     7.096132    13B1u    9.471258

    Final Occupation by Irrep:
             Ag   B1g   B2g   B3g    Au   B1u   B2u   B3u
    DOCC [     3,    0,    0,    0,    0,    2,    1,    1 ]
    SOCC [     0,    0,    1,    0,    0,    0,    0,    0 ]
    NA   [     3,    0,    1,    0,    0,    2,    1,    1 ]
    NB   [     3,    0,    0,    0,    0,    2,    1,    1 ]

  @DF-UKS Final Energy:  -149.85405828386499

   => Energetics <=

    Nuclear Repulsion Energy =             25.3811720043856610
    One-Electron Energy =                -249.3526611626457736
    Two-Electron Energy =                  87.3996691381858000
    DFT Exchange-Correlation Energy =     -13.2822382637906831
    Empirical Dispersion Energy =           0.0000000000000000
    VV10 Nonlocal Energy =                  0.0000000000000000
    Total Energy =                       -149.8540582838649868

  UHF NO Occupations:
  HONO-2 :    2B1u 1.9997263
  HONO-1 :    1B3u 1.9987992
  HONO-0 :    1B2g 1.0000000
  LUNO+0 :    2B3u 0.0012008
  LUNO+1 :    3B1u 0.0002737
  LUNO+2 :    4 Ag 0.0001468
  LUNO+3 :    2B2u 0.0000380

Computation Completed

Properties will be evaluated at   0.000000,   0.000000,   0.000000 [a0]

Properties computed using the B3LYP density matrix

 Multipole Moments:

 ------------------------------------------------------------------------------------
     Multipole            Electronic (a.u.)      Nuclear  (a.u.)        Total (a.u.)
 ------------------------------------------------------------------------------------

 L = 1.  Multiply by 2.5417464519 to convert [e a0] to [Debye]
 Dipole X            :          0.0000000            0.0000000            0.0000000
 Dipole Y            :          0.0000000            0.0000000            0.0000000
 Dipole Z            :          0.0000000            0.0000000            0.0000000
 Magnitude           :                                                    0.0000000

 L = 2.  Multiply by 1.3450342976 to convert [e a0^2] to [Debye ang]
 Quadrupole XX       :         -6.4181285            0.0000000           -6.4181285
 Quadrupole XY       :          0.0000000            0.0000000            0.0000000
 Quadrupole XZ       :          0.0000000            0.0000000            0.0000000
 Quadrupole YY       :         -5.8728615            0.0000000           -5.8728615
 Quadrupole YZ       :          0.0000000            0.0000000            0.0000000
 Quadrupole ZZ       :        -29.6988847           25.4329416           -4.2659430
 Traceless XX        :          7.5784964           -8.4776472           -0.8991508
 Traceless YY        :          8.1237634           -8.4776472           -0.3538838
 Traceless ZZ        :        -15.7022598           16.9552944            1.2530346

 ------------------------------------------------------------------------------------
  ==> Computing MBIS Charges <==

  Electron Count from Grid (Expected Number): 15.00000 (15.00000)
  Difference: -0.00000

  MBIS Charges: (a.u.)
   Center  Symbol  Z      Pop.       Charge
      1       O    8    7.500000    0.500000
      2       O    8    7.500000    0.500000

  MBIS Dipoles: [e a0]
   Center  Symbol  Z        X           Y           Z
      1       O    8    0.000000   -0.000000   -0.071132
      2       O    8   -0.000000   -0.000000    0.071132

  MBIS Quadrupoles: [e a0^2]
   Center  Symbol  Z      XX        XY        XZ        YY        YZ        ZZ
      1       O    8   -3.2091   -0.0000   -0.0000   -2.9364   -0.0000   -3.1071
      2       O    8   -3.2091   -0.0000    0.0000   -2.9364   -0.0000   -3.1071

  MBIS Octupoles: [e a0^3]
   Center  Symbol  Z      XXX       XXY       XXZ       XYY       XYZ       XZZ       YYY       YYZ       YZZ       ZZZ
      1       O    8   -0.0000   -0.0000   -0.0639   -0.0000   -0.0000   -0.0000    0.0000   -0.1231    0.0000   -0.3734
      2       O    8   -0.0000   -0.0000    0.0639   -0.0000    0.0000   -0.0000    0.0000    0.1231    0.0000    0.3734

  MBIS Radial Moments:
   Center  Symbol  Z      [a0^2]      [a0^3]      [a0^4]
      1       O    8    9.252610   16.174827   33.938747
      2       O    8    9.252610   16.174827   33.938747

  MBIS Valence Widths: [a0]
   Center  Symbol  Z     Width
      1       O    8    0.364256
      2       O    8    0.364256

*** tstop() called on Mac.lan at Sun Aug 10 18:13:47 2025
Module time:
	user time   =       3.31 seconds =       0.06 minutes
	system time =       2.25 seconds =       0.04 minutes
	total time  =          1 seconds =       0.02 minutes
Total time:
	user time   =      13.89 seconds =       0.23 minutes
	system time =       4.15 seconds =       0.07 minutes
	total time  =          2 seconds =       0.03 minutes

    Psi4 stopped on: Sunday, 10 August 2025 06:13PM
    Psi4 wall time for execution: 0:00:01.76

*** Psi4 exiting successfully. Buy a developer a beer!
