                               Psi4 1.9.1 release

  ==> Input File <==

--------------------------------------------------------------------------
molecule {
1 2
O           0.000000           0.000000           0.000000
C           0.000000           0.000000           1.032971
}

set {
basis              cc-pvtz
reference          uks
maxiter            500
DAMPING_PERCENTAGE 1
E_CONVERGENCE      1.0E-8
D_CONVERGENCE      1.0E-8
DIIS_MAX_VECS      400
MBIS_MAXITER       8000
guess              read
}

E, wfn = energy('b3lyp', restart_file='last_wfn', return_wfn=True)
properties('b3lyp','MBIS_CHARGES', wfn=wfn)
wfn.to_file('last_wfn')
--------------------------------------------------------------------------

    Molecular point group: c2v
  Charge       = 1
  Multiplicity = 2
  Basis Set: CC-PVTZ
    Blend: CC-PVTZ
  Basis Set: (CC-PVTZ AUX)
    Blend: CC-PVTZ-JKFIT
  @DF-UKS Final Energy:  -112.81975570422252
    Total Energy =                       -112.8197557042225156
 Dipole X            :          0.0000000            0.0000000            0.0000000
 Dipole Y            :          0.0000000            0.0000000            0.0000000
 Dipole Z            :          1.0282223           -0.0021276            1.0260947
 Magnitude           :                                                    1.0260947
    Molecular point group: c2v

    Geometry (in Angstrom), charge = 1, multiplicity = 2:

       Center              X                  Y                   Z               Mass
    ------------   -----------------  -----------------  -----------------  -----------------
         O            0.000000000000     0.000000000000    -0.442782275583    15.994914619570
         C            0.000000000000     0.000000000000     0.590188724417    12.000000000000

  Charge       = 1
  Multiplicity = 2
  Basis Set: CC-PVTZ
    Blend: CC-PVTZ
  Basis Set: (CC-PVTZ AUX)
    Blend: CC-PVTZ-JKFIT

    Orbital Energies [Eh]
    ---------------------

    Alpha Occupied:

       1A1   -19.643428     2A1   -10.774143     3A1    -1.622658
       4A1    -0.956543     1B1    -0.900577     1B2    -0.900577
       5A1    -0.870498

    Alpha Virtual:

       2B1    -0.397767     2B2    -0.397767     6A1    -0.112385
       7A1    -0.023126     3B2    -0.014915     3B1    -0.014915
       8A1     0.233112     9A1     0.274423     1A2     0.274423
       4B2     0.329336     4B1     0.329336    10A1     0.330510
       5B2     0.518872     5B1     0.518872    11A1     0.818577
      12A1     1.043184     2A2     1.176659    13A1     1.176659
      14A1     1.492991     6B2     1.504299     6B1     1.504299
       7B2     1.607061     7B1     1.607061    15A1     2.144416
       8B2     2.214629     8B1     2.214629    16A1     2.435924
       3A2     2.435925     4A2     2.488841    17A1     2.488841
       9B2     2.492252     9B1     2.492252    18A1     2.634868
      10B1     2.916386    10B2     2.916386    19A1     3.053871
      11B2     3.768552    11B1     3.768552    20A1     4.356596
      12B2     4.724056    12B1     4.724056     5A2     5.240225
      21A1     5.240226    22A1     5.776892     6A2     5.866885
      23A1     5.866889    13B1     6.085153    13B2     6.085153
      14B2     6.346250    14B1     6.346250    24A1     6.469875
      25A1     7.113119    26A1    13.184016

    Beta Occupied:

       1A1   -19.644261     2A1   -10.748878     3A1    -1.615215
       4A1    -0.934175     1B1    -0.894641     1B2    -0.894641

    Beta Virtual:

       5A1    -0.642701     2B1    -0.354711     2B2    -0.354711
       6A1    -0.098092     3B2    -0.004074     3B1    -0.004074
       7A1     0.018009     8A1     0.256200     1A2     0.294810
       9A1     0.294810     4B2     0.327757     4B1     0.327757
      10A1     0.368541     5B2     0.555718     5B1     0.555718
      11A1     0.821801    12A1     1.085320     2A2     1.177516
      13A1     1.177516     6B2     1.532074     6B1     1.532074
      14A1     1.548348     7B2     1.617441     7B1     1.617441
      15A1     2.191051     8B2     2.250220     8B1     2.250220
      16A1     2.462306     3A2     2.462307     4A2     2.561764
      17A1     2.561765     9B2     2.599941     9B1     2.599941
      18A1     2.714385    10B1     2.937904    10B2     2.937904
      19A1     3.124814    11B2     3.782440    11B1     3.782440
      20A1     4.379925    12B2     4.715859    12B1     4.715859
       5A2     5.242118    21A1     5.242119    22A1     5.795997
       6A2     5.856173    23A1     5.856177    13B1     6.095060
      13B2     6.095060    14B2     6.358023    14B1     6.358023
      24A1     6.478804    25A1     7.124933    26A1    13.210223

    Final Occupation by Irrep:
             A1    A2    B1    B2
    DOCC [     4,    0,    1,    1 ]
    SOCC [     1,    0,    0,    0 ]
    NA   [     5,    0,    1,    1 ]
    NB   [     4,    0,    1,    1 ]

  @DF-UKS Final Energy:  -112.81975570504036

   => Energetics <=

    Nuclear Repulsion Energy =             24.5897572266404403
    One-Electron Energy =                -196.4870885854103051
    Two-Electron Energy =                  70.1078010311681226
    DFT Exchange-Correlation Energy =     -11.0302253774386188
    Empirical Dispersion Energy =           0.0000000000000000
    VV10 Nonlocal Energy =                  0.0000000000000000
    Total Energy =                       -112.8197557050403645

  UHF NO Occupations:
  HONO-2 :    1 B1 1.9974581
  HONO-1 :    1 B2 1.9974581
  HONO-0 :    5 A1 1.0000000
  LUNO+0 :    2 B1 0.0025419
  LUNO+1 :    2 B2 0.0025419
  LUNO+2 :    6 A1 0.0001240
  LUNO+3 :    7 A1 0.0000151

Computation Completed

Properties will be evaluated at   0.000000,   0.000000,   0.000000 [a0]

Properties computed using the B3LYP density matrix

 Multipole Moments:

 ------------------------------------------------------------------------------------
     Multipole            Electronic (a.u.)      Nuclear  (a.u.)        Total (a.u.)
 ------------------------------------------------------------------------------------

 L = 1.  Multiply by 2.5417464519 to convert [e a0] to [Debye]
 Dipole X            :          0.0000000            0.0000000            0.0000000
 Dipole Y            :          0.0000000            0.0000000            0.0000000
 Dipole Z            :          1.0282223           -0.0021276            1.0260947
 Magnitude           :                                                    1.0260947

 L = 2.  Multiply by 1.3450342976 to convert [e a0^2] to [Debye ang]
 Quadrupole XX       :         -5.7521713            0.0000000           -5.7521713
 Quadrupole XY       :          0.0000000            0.0000000            0.0000000
 Quadrupole XZ       :          0.0000000            0.0000000            0.0000000
 Quadrupole YY       :         -5.7521713            0.0000000           -5.7521713
 Quadrupole YZ       :          0.0000000            0.0000000            0.0000000
 Quadrupole ZZ       :        -17.2960669           13.0643319           -4.2317350
 Traceless XX        :          3.8479652           -4.3547773           -0.5068121
 Traceless YY        :          3.8479652           -4.3547773           -0.5068121
 Traceless ZZ        :         -7.6959304            8.7095546            1.0136242

 ------------------------------------------------------------------------------------
  ==> Computing MBIS Charges <==

  Electron Count from Grid (Expected Number): 13.00000 (13.00000)
  Difference:  0.00000

  MBIS Charges: (a.u.)
   Center  Symbol  Z      Pop.       Charge
      1       O    8    8.032622   -0.032622
      2       C    6    4.967378    1.032622

  MBIS Dipoles: [e a0]
   Center  Symbol  Z        X           Y           Z
      1       O    8   -0.000000    0.000000   -0.262652
      2       C    6    0.000000    0.000000    0.109773

  MBIS Quadrupoles: [e a0^2]
   Center  Symbol  Z      XX        XY        XZ        YY        YZ        ZZ
      1       O    8   -3.3445   -0.0000    0.0000   -3.3445    0.0000   -3.5701
      2       C    6   -2.4077   -0.0000    0.0000   -2.4077    0.0000   -2.6076

  MBIS Octupoles: [e a0^3]
   Center  Symbol  Z      XXX       XXY       XXZ       XYY       XYZ       XZZ       YYY       YYZ       YZZ       ZZZ
      1       O    8   -0.0000    0.0000   -0.2103   -0.0000    0.0000   -0.0000   -0.0000   -0.2103    0.0000   -0.4260
      2       C    6    0.0000    0.0000    0.0916    0.0000    0.0000    0.0000    0.0000    0.0916    0.0000    0.0349

  MBIS Radial Moments:
   Center  Symbol  Z      [a0^2]      [a0^3]      [a0^4]
      1       O    8   10.259145   17.961180   37.572676
      2       C    6    7.422952   15.026582   36.289516

  MBIS Valence Widths: [a0]
   Center  Symbol  Z     Width
      1       O    8    0.367491
      2       C    6    0.433900

*** tstop() called on Mac.lan at Sun Aug 10 18:36:27 2025
Module time:
	user time   =       3.40 seconds =       0.06 minutes
	system time =       2.17 seconds =       0.04 minutes
	total time  =          0 seconds =       0.00 minutes
Total time:
	user time   =      20.62 seconds =       0.34 minutes
	system time =       4.38 seconds =       0.07 minutes
	total time  =          2 seconds =       0.03 minutes

    Psi4 stopped on: Sunday, 10 August 2025 06:36PM
    Psi4 wall time for execution: 0:00:02.44

*** Psi4 exiting successfully. Buy a developer a beer!
