                               Psi4 1.9.1 release

  ==> Input File <==

--------------------------------------------------------------------------
molecule {
1 3
N           0.000000           0.000000           0.000000
C           0.000000           0.000000           1.010385
}

set {
basis              cc-pvtz
reference          uks
maxiter            500
DAMPING_PERCENTAGE 1
E_CONVERGENCE      1.0E-8
D_CONVERGENCE      1.0E-8
DIIS_MAX_VECS      400
MBIS_MAXITER       8000
guess              read
}

E, wfn = energy('b3lyp', restart_file='last_wfn', return_wfn=True)
properties('b3lyp','MBIS_CHARGES', wfn=wfn)
wfn.to_file('last_wfn')
--------------------------------------------------------------------------

    Molecular point group: c2v
  Charge       = 1
  Multiplicity = 3
  Basis Set: CC-PVTZ
    Blend: CC-PVTZ
  Basis Set: (CC-PVTZ AUX)
    Blend: CC-PVTZ-JKFIT
  @DF-UKS Final Energy:   -92.11239248923111
    Total Energy =                        -92.1123924892311265
 Dipole X            :          0.0000000            0.0000000            0.0000000
 Dipole Y            :          0.0000000            0.0000000            0.0000000
 Dipole Z            :          0.8481893            0.0013543            0.8495436
 Magnitude           :                                                    0.8495436
    Molecular point group: c2v

    Geometry (in Angstrom), charge = 1, multiplicity = 3:

       Center              X                  Y                   Z               Mass
    ------------   -----------------  -----------------  -----------------  -----------------
         N            0.000000000000     0.000000000000    -0.466276410163    14.003074004430
         C            0.000000000000     0.000000000000     0.544108589837    12.000000000000

  Charge       = 1
  Multiplicity = 3
  Basis Set: CC-PVTZ
    Blend: CC-PVTZ
  Basis Set: (CC-PVTZ AUX)
    Blend: CC-PVTZ-JKFIT

    Orbital Energies [Eh]
    ---------------------

    Alpha Occupied:

       1A1   -14.807487     2A1   -10.737712     3A1    -1.500794
       1B1    -0.909503     4A1    -0.876637     1B2    -0.861396
       5A1    -0.803515

    Alpha Virtual:

       2B1    -0.367549     2B2    -0.333877     6A1    -0.098341
       3B1    -0.029686     3B2    -0.018173     7A1    -0.015963
       8A1     0.151505     4B1     0.212982     4B2     0.229297
       1A2     0.245793     9A1     0.246257    10A1     0.382462
       5B1     0.515907     5B2     0.537975    11A1     0.593704
       2A2     0.829732    12A1     0.830675    13A1     1.089361
       6B1     1.205530     6B2     1.227975     7B1     1.480798
      14A1     1.481597     7B2     1.506907    15A1     1.900960
       8B1     2.181056     8B2     2.181317    16A1     2.319878
       3A2     2.325453    17A1     2.349442     9B1     2.408641
       9B2     2.434743     4A2     2.501348    18A1     2.501945
      10B1     2.600974    10B2     2.640428    19A1     2.781794
      11B1     3.075341    11B2     3.106059    12B1     3.551605
      12B2     3.551759    20A1     3.894828     5A2     4.055986
      21A1     4.056093     6A2     4.320293    22A1     4.321045
      13B1     4.468867    13B2     4.502491    23A1     4.831175
      24A1     5.082550    14B1     5.497864    14B2     5.534090
      25A1     6.510291    26A1    14.635147

    Beta Occupied:

       1A1   -14.793673     2A1   -10.707632     3A1    -1.430950
       1B2    -0.835348     4A1    -0.790814

    Beta Virtual:

       1B1    -0.712104     5A1    -0.608798     2B2    -0.293533
       2B1    -0.263902     6A1    -0.081478     3B2    -0.008802
       3B1    -0.000754     7A1     0.026802     8A1     0.166694
       4B2     0.234429     4B1     0.243405     1A2     0.282451
       9A1     0.286008    10A1     0.449844     5B2     0.572466
       5B1     0.578744    11A1     0.611753     2A2     0.857963
      12A1     0.860907    13A1     1.153540     6B2     1.239447
       6B1     1.243140    14A1     1.525921     7B2     1.534115
       7B1     1.545227    15A1     1.962611     8B2     2.235754
       8B1     2.238053     3A2     2.374361    16A1     2.378496
      17A1     2.405061     9B2     2.515796     9B1     2.537117
       4A2     2.592986    18A1     2.602373    10B2     2.663360
      10B1     2.679280    19A1     2.895237    11B2     3.144582
      11B1     3.156141    12B2     3.590762    12B1     3.592114
      20A1     3.940696     5A2     4.104024    21A1     4.110911
       6A2     4.357552    22A1     4.361260    13B2     4.514541
      13B1     4.520853    23A1     4.872553    24A1     5.116337
      14B2     5.566122    14B1     5.579700    25A1     6.547438
      26A1    14.677694

    Final Occupation by Irrep:
             A1    A2    B1    B2
    DOCC [     4,    0,    0,    1 ]
    SOCC [     1,    0,    1,    0 ]
    NA   [     5,    0,    1,    1 ]
    NB   [     4,    0,    0,    1 ]

  @DF-UKS Final Energy:   -92.11239249215900

   => Energetics <=

    Nuclear Repulsion Energy =             21.9970039619946860
    One-Electron Energy =                -162.1634372027924087
    Two-Electron Energy =                  57.7772126151025986
    DFT Exchange-Correlation Energy =      -9.7231718664638809
    Empirical Dispersion Energy =           0.0000000000000000
    VV10 Nonlocal Energy =                  0.0000000000000000
    Total Energy =                        -92.1123924921590032

  UHF NO Occupations:
  HONO-2 :    1 B2 1.9985501
  HONO-1 :    5 A1 1.0000000
  HONO-0 :    1 B1 1.0000000
  LUNO+0 :    2 B2 0.0014499
  LUNO+1 :    6 A1 0.0003857
  LUNO+2 :    7 A1 0.0002547
  LUNO+3 :    8 A1 0.0000006

Computation Completed

Properties will be evaluated at   0.000000,   0.000000,   0.000000 [a0]

Properties computed using the B3LYP density matrix

 Multipole Moments:

 ------------------------------------------------------------------------------------
     Multipole            Electronic (a.u.)      Nuclear  (a.u.)        Total (a.u.)
 ------------------------------------------------------------------------------------

 L = 1.  Multiply by 2.5417464519 to convert [e a0] to [Debye]
 Dipole X            :          0.0000000            0.0000000            0.0000000
 Dipole Y            :          0.0000000            0.0000000            0.0000000
 Dipole Z            :          0.8481893            0.0013543            0.8495436
 Magnitude           :                                                    0.8495436

 L = 2.  Multiply by 1.3450342976 to convert [e a0^2] to [Debye ang]
 Quadrupole XX       :         -5.3073310            0.0000000           -5.3073310
 Quadrupole XY       :          0.0000000            0.0000000            0.0000000
 Quadrupole XZ       :          0.0000000            0.0000000            0.0000000
 Quadrupole YY       :         -6.1863628            0.0000000           -6.1863628
 Quadrupole YZ       :          0.0000000            0.0000000            0.0000000
 Quadrupole ZZ       :        -16.9475460           11.7781602           -5.1693858
 Traceless XX        :          4.1730823           -3.9260534            0.2470289
 Traceless YY        :          3.2940505           -3.9260534           -0.6320029
 Traceless ZZ        :         -7.4671327            7.8521068            0.3849741

 ------------------------------------------------------------------------------------
  ==> Computing MBIS Charges <==

  Electron Count from Grid (Expected Number): 12.00000 (12.00000)
  Difference: -0.00000

  MBIS Charges: (a.u.)
   Center  Symbol  Z      Pop.       Charge
      1       N    7    6.891880    0.108120
      2       C    6    5.108119    0.891881

  MBIS Dipoles: [e a0]
   Center  Symbol  Z        X           Y           Z
      1       N    7   -0.000000    0.000000   -0.073661
      2       C    6   -0.000000    0.000000    0.101426

  MBIS Quadrupoles: [e a0^2]
   Center  Symbol  Z      XX        XY        XZ        YY        YZ        ZZ
      1       N    7   -3.0350   -0.0000   -0.0000   -3.5326   -0.0000   -3.8185
      2       C    6   -2.2724    0.0000    0.0000   -2.6538    0.0000   -2.7161

  MBIS Octupoles: [e a0^3]
   Center  Symbol  Z      XXX       XXY       XXZ       XYY       XYZ       XZZ       YYY       YYZ       YZZ       ZZZ
      1       N    7   -0.0000   -0.0000    0.0102   -0.0000    0.0000    0.0000   -0.0000   -0.1396    0.0000    0.0139
      2       C    6   -0.0000   -0.0000   -0.0457   -0.0000    0.0000    0.0000    0.0000    0.0612    0.0000   -0.0458

  MBIS Radial Moments:
   Center  Symbol  Z      [a0^2]      [a0^3]      [a0^4]
      1       N    7   10.386035   20.054481   46.254672
      2       C    6    7.642296   15.426525   37.295113

  MBIS Valence Widths: [a0]
   Center  Symbol  Z     Width
      1       N    7    0.408139
      2       C    6    0.429882

*** tstop() called on Mac.lan at Sun Aug 10 18:32:59 2025
Module time:
	user time   =       3.74 seconds =       0.06 minutes
	system time =       2.06 seconds =       0.03 minutes
	total time  =          0 seconds =       0.00 minutes
Total time:
	user time   =      16.91 seconds =       0.28 minutes
	system time =       4.62 seconds =       0.08 minutes
	total time  =          2 seconds =       0.03 minutes

    Psi4 stopped on: Sunday, 10 August 2025 06:32PM
    Psi4 wall time for execution: 0:00:02.09

*** Psi4 exiting successfully. Buy a developer a beer!
