                               Psi4 1.9.1 release

  ==> Input File <==

--------------------------------------------------------------------------
molecule {
1 1
O           0.000000           0.000000           0.000000
N           0.000000           0.000000           0.692613
}

set {
basis              cc-pvtz
reference          uks
maxiter            500
DAMPING_PERCENTAGE 1
E_CONVERGENCE      1.0E-8
D_CONVERGENCE      1.0E-8
DIIS_MAX_VECS      400
MBIS_MAXITER       8000
guess              read
}

E, wfn = energy('b3lyp', restart_file='last_wfn', return_wfn=True)
properties('b3lyp','MBIS_CHARGES', wfn=wfn)
wfn.to_file('last_wfn')
--------------------------------------------------------------------------

    Molecular point group: c2v
  Charge       = 1
  Multiplicity = 1
  Basis Set: CC-PVTZ
    Blend: CC-PVTZ
  Basis Set: (CC-PVTZ AUX)
    Blend: CC-PVTZ-JKFIT
  @DF-UKS Final Energy:  -128.39362946714172
    Total Energy =                       -128.3936294671417215
 Dipole X            :          0.0000000            0.0000000            0.0000000
 Dipole Y            :          0.0000000            0.0000000            0.0000000
 Dipole Z            :         -0.1260423           -0.0026262           -0.1286684
 Magnitude           :                                                    0.1286684
    Molecular point group: c2v

    Geometry (in Angstrom), charge = 1, multiplicity = 1:

       Center              X                  Y                   Z               Mass
    ------------   -----------------  -----------------  -----------------  -----------------
         O            0.000000000000     0.000000000000    -0.323312046584    15.994914619570
         N            0.000000000000     0.000000000000     0.369300953416    14.003074004430

  Charge       = 1
  Multiplicity = 1
  Basis Set: CC-PVTZ
    Blend: CC-PVTZ
  Basis Set: (CC-PVTZ AUX)
    Blend: CC-PVTZ-JKFIT

    Orbital Energies [Eh]
    ---------------------

    Alpha Occupied:

       1A1   -19.759857     2A1   -14.886328     3A1    -2.055136
       1B2    -1.278966     1B1    -1.278966     4A1    -1.083818
       5A1    -0.908910

    Alpha Virtual:

       2B1    -0.229535     2B2    -0.229535     6A1    -0.066801
       3B2     0.012869     3B1     0.012869     7A1     0.091591
       8A1     0.210565     4B1     0.338056     4B2     0.338056
       1A2     0.491668     9A1     0.491668    10A1     0.865123
      11A1     1.025050     5B1     1.030479     5B2     1.030479
      12A1     1.305820     2A2     1.305820    13A1     1.624029
       6B1     1.645642     6B2     1.645642     7B2     2.225160
       7B1     2.225160    14A1     2.764675    15A1     2.919732
       8B1     3.246354     8B2     3.246354    16A1     3.545403
       3A2     3.545403    17A1     3.589059     9B1     3.636264
       9B2     3.636264     4A2     3.931802    18A1     3.931803
      10B2     3.954210    10B1     3.954210    19A1     4.322212
      11B1     4.780173    11B2     4.780173    12B1     4.888561
      12B2     4.888561    20A1     5.608191     5A2     5.608191
      21A1     5.815563    13B2     6.386314    13B1     6.386314
      22A1     6.617423     6A2     6.617423    23A1     6.835947
      24A1     8.382375    14B1     8.468793    14B2     8.468793
      25A1    10.297363    26A1    26.323634

    Beta Occupied:

       1A1   -19.759857     2A1   -14.886328     3A1    -2.055136
       1B2    -1.278966     1B1    -1.278966     4A1    -1.083818
       5A1    -0.908910

    Beta Virtual:

       2B1    -0.229535     2B2    -0.229535     6A1    -0.066801
       3B2     0.012869     3B1     0.012869     7A1     0.091591
       8A1     0.210565     4B1     0.338056     4B2     0.338056
       1A2     0.491668     9A1     0.491668    10A1     0.865123
      11A1     1.025050     5B1     1.030479     5B2     1.030479
      12A1     1.305820     2A2     1.305820    13A1     1.624029
       6B1     1.645642     6B2     1.645642     7B2     2.225160
       7B1     2.225160    14A1     2.764675    15A1     2.919732
       8B1     3.246354     8B2     3.246354    16A1     3.545403
       3A2     3.545403    17A1     3.589059     9B1     3.636264
       9B2     3.636264     4A2     3.931802    18A1     3.931803
      10B2     3.954210    10B1     3.954210    19A1     4.322212
      11B1     4.780173    11B2     4.780173    12B1     4.888561
      12B2     4.888561    20A1     5.608191     5A2     5.608191
      21A1     5.815563    13B2     6.386314    13B1     6.386314
      22A1     6.617423     6A2     6.617423    23A1     6.835947
      24A1     8.382375    14B1     8.468793    14B2     8.468793
      25A1    10.297363    26A1    26.323634

    Final Occupation by Irrep:
             A1    A2    B1    B2
    DOCC [     5,    0,    1,    1 ]
    SOCC [     0,    0,    0,    0 ]
    NA   [     5,    0,    1,    1 ]
    NB   [     5,    0,    1,    1 ]

  @DF-UKS Final Energy:  -128.39362946712441

   => Energetics <=

    Nuclear Repulsion Energy =             42.7856881079621658
    One-Electron Energy =                -250.6775398441570815
    Two-Electron Energy =                  92.2936464636762253
    DFT Exchange-Correlation Energy =     -12.7954241946057152
    Empirical Dispersion Energy =           0.0000000000000000
    VV10 Nonlocal Energy =                  0.0000000000000000
    Total Energy =                       -128.3936294671244127

  UHF NO Occupations:
  HONO-2 :    1 B1 2.0000000
  HONO-1 :    1 B2 2.0000000
  HONO-0 :    5 A1 2.0000000
  LUNO+0 :    6 A1 0.0000000
  LUNO+1 :    7 A1 0.0000000
  LUNO+2 :    8 A1 0.0000000
  LUNO+3 :    9 A1 0.0000000

Computation Completed

Properties will be evaluated at   0.000000,   0.000000,   0.000000 [a0]

Properties computed using the B3LYP density matrix

 Multipole Moments:

 ------------------------------------------------------------------------------------
     Multipole            Electronic (a.u.)      Nuclear  (a.u.)        Total (a.u.)
 ------------------------------------------------------------------------------------

 L = 1.  Multiply by 2.5417464519 to convert [e a0] to [Debye]
 Dipole X            :          0.0000000            0.0000000            0.0000000
 Dipole Y            :          0.0000000            0.0000000            0.0000000
 Dipole Z            :         -0.1260423           -0.0026262           -0.1286684
 Magnitude           :                                                    0.1286684

 L = 2.  Multiply by 1.3450342976 to convert [e a0^2] to [Debye ang]
 Quadrupole XX       :         -4.9823468            0.0000000           -4.9823468
 Quadrupole XY       :          0.0000000            0.0000000            0.0000000
 Quadrupole XZ       :          0.0000000            0.0000000            0.0000000
 Quadrupole YY       :         -4.9823468            0.0000000           -4.9823468
 Quadrupole YZ       :          0.0000000            0.0000000            0.0000000
 Quadrupole ZZ       :        -12.0768989            6.3955193           -5.6813796
 Traceless XX        :          2.3648507           -2.1318398            0.2330109
 Traceless YY        :          2.3648507           -2.1318398            0.2330109
 Traceless ZZ        :         -4.7297014            4.2636795           -0.4660219

 ------------------------------------------------------------------------------------
  ==> Computing MBIS Charges <==

  Electron Count from Grid (Expected Number): 14.00000 (14.00000)
  Difference:  0.00000

  MBIS Charges: (a.u.)
   Center  Symbol  Z      Pop.       Charge
      1       O    8    7.466676    0.533324
      2       N    7    6.533324    0.466676

  MBIS Dipoles: [e a0]
   Center  Symbol  Z        X           Y           Z
      1       O    8   -0.000000    0.000000    0.011135
      2       N    7    0.000000    0.000000   -0.139639

  MBIS Quadrupoles: [e a0^2]
   Center  Symbol  Z      XX        XY        XZ        YY        YZ        ZZ
      1       O    8   -2.3939   -0.0000    0.0000   -2.3939    0.0000   -2.7661
      2       N    7   -2.5884   -0.0000   -0.0000   -2.5884    0.0000   -3.1331

  MBIS Octupoles: [e a0^3]
   Center  Symbol  Z      XXX       XXY       XXZ       XYY       XYZ       XZZ       YYY       YYZ       YZZ       ZZZ
      1       O    8   -0.0000   -0.0000    0.0479   -0.0000    0.0000    0.0000   -0.0000    0.0479   -0.0000    0.2074
      2       N    7    0.0000   -0.0000   -0.1805   -0.0000   -0.0000    0.0000   -0.0000   -0.1805    0.0000   -0.5241

  MBIS Radial Moments:
   Center  Symbol  Z      [a0^2]      [a0^3]      [a0^4]
      1       O    8    7.553941   11.897356   22.526582
      2       N    7    8.309993   15.021267   32.612176

  MBIS Valence Widths: [a0]
   Center  Symbol  Z     Width
      1       O    8    0.327067
      2       N    7    0.374629

*** tstop() called on Mac.lan at Sun Aug 10 18:41:43 2025
Module time:
	user time   =       4.35 seconds =       0.07 minutes
	system time =       1.87 seconds =       0.03 minutes
	total time  =          0 seconds =       0.00 minutes
Total time:
	user time   =      16.69 seconds =       0.28 minutes
	system time =       4.09 seconds =       0.07 minutes
	total time  =          2 seconds =       0.03 minutes

    Psi4 stopped on: Sunday, 10 August 2025 06:41PM
    Psi4 wall time for execution: 0:00:02.02

*** Psi4 exiting successfully. Buy a developer a beer!
