                               Psi4 1.9.1 release

  ==> Input File <==

--------------------------------------------------------------------------
molecule {
1 3
O           0.000000           0.000000           0.000000
H           0.000000           0.000000           0.928136
}

set {
basis              cc-pvtz
reference          uks
maxiter            500
DAMPING_PERCENTAGE 1
E_CONVERGENCE      1.0E-8
D_CONVERGENCE      1.0E-8
DIIS_MAX_VECS      400
MBIS_MAXITER       8000
guess              read
}

E, wfn = energy('b3lyp', restart_file='last_wfn', return_wfn=True)
properties('b3lyp','MBIS_CHARGES', wfn=wfn)
wfn.to_file('last_wfn')
--------------------------------------------------------------------------

    Molecular point group: c2v
  Charge       = 1
  Multiplicity = 3
  Basis Set: CC-PVTZ
    Blend: CC-PVTZ
  Basis Set: (CC-PVTZ AUX)
    Blend: CC-PVTZ-JKFIT
  @DF-UKS Final Energy:   -75.27181805473251
    Total Energy =                        -75.2718180547324920
 Dipole X            :          0.0000000            0.0000000            0.0000000
 Dipole Y            :          0.0000000            0.0000000            0.0000000
 Dipole Z            :         -0.0151684            0.8182603            0.8030919
 Magnitude           :                                                    0.8030919
    Molecular point group: c2v

    Geometry (in Angstrom), charge = 1, multiplicity = 3:

       Center              X                  Y                   Z               Mass
    ------------   -----------------  -----------------  -----------------  -----------------
         O            0.000000000000     0.000000000000    -0.055014586665    15.994914619570
         H            0.000000000000     0.000000000000     0.873121413335     1.007825032230

  Charge       = 1
  Multiplicity = 3
  Basis Set: CC-PVTZ
    Blend: CC-PVTZ
  Basis Set: (CC-PVTZ AUX)
    Blend: CC-PVTZ-JKFIT

    Orbital Energies [Eh]
    ---------------------

    Alpha Occupied:

       1A1   -19.826960     2A1    -1.603019     3A1    -1.009822
       1B1    -0.963103     1B2    -0.963103

    Alpha Virtual:

       4A1    -0.285026     5A1     0.024064     2B1     0.135169
       2B2     0.135169     6A1     0.157410     3B2     0.324196
       3B1     0.324196     7A1     0.455227     8A1     0.906946
       9A1     0.912109     1A2     0.912109     4B1     1.304361
       4B2     1.304361    10A1     1.425693    11A1     2.012970
      12A1     2.761228     2A2     2.761228     5B2     2.829864
       5B1     2.829864     6B2     3.138514     6B1     3.138514
      13A1     3.280036     7B2     3.634367     7B1     3.634367
      14A1     3.908547    15A1     4.186448     8B1     4.488581
       8B2     4.488581    16A1     4.845602     3A2     4.845602
       4A2     5.518510    17A1     5.518510     9B1     5.760699
       9B2     5.760699    18A1     5.938369    10B2     6.179568
      10B1     6.179568    19A1     6.512016    20A1    10.023667

    Beta Occupied:

       1A1   -19.770936     2A1    -1.454235     3A1    -0.952426

    Beta Virtual:

       1B1    -0.659550     1B2    -0.659550     4A1    -0.269142
       5A1     0.035555     6A1     0.169904     2B1     0.204544
       2B2     0.204544     3B2     0.339034     3B1     0.339034
       7A1     0.503932     8A1     0.929671     9A1     1.023982
       1A2     1.023982     4B1     1.357696     4B2     1.357696
      10A1     1.454802    11A1     2.026898     2A2     2.775986
      12A1     2.775986     5B2     2.912748     5B1     2.912748
       6B2     3.188441     6B1     3.188441    13A1     3.290320
       7B2     3.674659     7B1     3.674659    14A1     3.960838
      15A1     4.245253     8B1     4.640929     8B2     4.640929
      16A1     4.942440     3A2     4.942441     4A2     5.730233
      17A1     5.730234     9B1     5.872215     9B2     5.872215
      18A1     5.988969    10B2     6.236880    10B1     6.236880
      19A1     6.566687    20A1    10.094992

    Final Occupation by Irrep:
             A1    A2    B1    B2
    DOCC [     3,    0,    0,    0 ]
    SOCC [     0,    0,    1,    1 ]
    NA   [     3,    0,    1,    1 ]
    NB   [     3,    0,    0,    0 ]

  @DF-UKS Final Energy:   -75.27181805472654

   => Energetics <=

    Nuclear Repulsion Energy =              4.5612040534576836
    One-Electron Energy =                -108.1640767233017755
    Two-Electron Energy =                  35.2305794954325009
    DFT Exchange-Correlation Energy =      -6.8995248803149476
    Empirical Dispersion Energy =           0.0000000000000000
    VV10 Nonlocal Energy =                  0.0000000000000000
    Total Energy =                        -75.2718180547265376

  UHF NO Occupations:
  HONO-2 :    3 A1 1.9984618
  HONO-1 :    1 B1 1.0000000
  HONO-0 :    1 B2 1.0000000
  LUNO+0 :    4 A1 0.0015382
  LUNO+1 :    5 A1 0.0005061
  LUNO+2 :    6 A1 0.0000015
  LUNO+3 :    7 A1 0.0000000

Computation Completed

Properties will be evaluated at   0.000000,   0.000000,   0.000000 [a0]

Properties computed using the B3LYP density matrix

 Multipole Moments:

 ------------------------------------------------------------------------------------
     Multipole            Electronic (a.u.)      Nuclear  (a.u.)        Total (a.u.)
 ------------------------------------------------------------------------------------

 L = 1.  Multiply by 2.5417464519 to convert [e a0] to [Debye]
 Dipole X            :          0.0000000            0.0000000            0.0000000
 Dipole Y            :          0.0000000            0.0000000            0.0000000
 Dipole Z            :         -0.0151684            0.8182603            0.8030919
 Magnitude           :                                                    0.8030919

 L = 2.  Multiply by 1.3450342976 to convert [e a0^2] to [Debye ang]
 Quadrupole XX       :         -2.9813402            0.0000000           -2.9813402
 Quadrupole XY       :          0.0000000            0.0000000            0.0000000
 Quadrupole XZ       :          0.0000000            0.0000000            0.0000000
 Quadrupole YY       :         -2.9813402            0.0000000           -2.9813402
 Quadrupole YZ       :          0.0000000            0.0000000            0.0000000
 Quadrupole ZZ       :         -4.6923607            2.8088348           -1.8835259
 Traceless XX        :          0.5703401           -0.9362783           -0.3659381
 Traceless YY        :          0.5703401           -0.9362783           -0.3659381
 Traceless ZZ        :         -1.1406803            1.8725565            0.7318762

 ------------------------------------------------------------------------------------
  ==> Computing MBIS Charges <==

  Electron Count from Grid (Expected Number):  8.00000 ( 8.00000)
  Difference: -0.00000

  MBIS Charges: (a.u.)
   Center  Symbol  Z      Pop.       Charge
      1       O    8    7.496648    0.503352
      2       H    1    0.503352    0.496648

  MBIS Dipoles: [e a0]
   Center  Symbol  Z        X           Y           Z
      1       O    8   -0.000000   -0.000000   -0.008359
      2       H    1   -0.000000   -0.000000    0.044331

  MBIS Quadrupoles: [e a0^2]
   Center  Symbol  Z      XX        XY        XZ        YY        YZ        ZZ
      1       O    8   -2.7939   -0.0000    0.0000   -2.7939   -0.0000   -3.2076
      2       H    1   -0.1874    0.0000   -0.0000   -0.1874   -0.0000   -0.1814

  MBIS Octupoles: [e a0^3]
   Center  Symbol  Z      XXX       XXY       XXZ       XYY       XYZ       XZZ       YYY       YYZ       YZZ       ZZZ
      1       O    8    0.0000   -0.0000    0.0079    0.0000   -0.0000    0.0000   -0.0000    0.0079   -0.0000   -0.0317
      2       H    1    0.0000   -0.0000    0.0058    0.0000    0.0000   -0.0000   -0.0000    0.0058   -0.0000    0.0258

  MBIS Radial Moments:
   Center  Symbol  Z      [a0^2]      [a0^3]      [a0^4]
      1       O    8    8.795422   14.872099   30.129449
      2       H    1    0.556311    0.827743    1.475355

  MBIS Valence Widths: [a0]
   Center  Symbol  Z     Width
      1       O    8    0.355293
      2       H    1    0.307074

*** tstop() called on Mac.lan at Sun Aug 10 18:28:38 2025
Module time:
	user time   =       4.47 seconds =       0.07 minutes
	system time =       2.10 seconds =       0.04 minutes
	total time  =          0 seconds =       0.00 minutes
Total time:
	user time   =      14.22 seconds =       0.24 minutes
	system time =       4.36 seconds =       0.07 minutes
	total time  =          2 seconds =       0.03 minutes

    Psi4 stopped on: Sunday, 10 August 2025 06:28PM
    Psi4 wall time for execution: 0:00:01.85

*** Psi4 exiting successfully. Buy a developer a beer!
