                               Psi4 1.9.1 release

  ==> Input File <==

--------------------------------------------------------------------------
molecule {
1 1
O           0.000000           0.000000           0.000000
N           0.000000           0.000000           1.139251
}

set {
basis              cc-pvtz
reference          uks
maxiter            500
DAMPING_PERCENTAGE 1
E_CONVERGENCE      1.0E-8
D_CONVERGENCE      1.0E-8
DIIS_MAX_VECS      400
MBIS_MAXITER       8000
guess              read
}

E, wfn = energy('b3lyp', restart_file='last_wfn', return_wfn=True)
properties('b3lyp','MBIS_CHARGES', wfn=wfn)
wfn.to_file('last_wfn')
--------------------------------------------------------------------------

    Molecular point group: c2v
  Charge       = 1
  Multiplicity = 1
  Basis Set: CC-PVTZ
    Blend: CC-PVTZ
  Basis Set: (CC-PVTZ AUX)
    Blend: CC-PVTZ-JKFIT
  @DF-UKS Final Energy:  -129.56946697735617
    Total Energy =                       -129.5694669773561714
 Dipole X            :          0.0000000            0.0000000            0.0000000
 Dipole Y            :          0.0000000            0.0000000            0.0000000
 Dipole Z            :          0.2307598           -0.0043196            0.2264401
 Magnitude           :                                                    0.2264401
    Molecular point group: c2v

    Geometry (in Angstrom), charge = 1, multiplicity = 1:

       Center              X                  Y                   Z               Mass
    ------------   -----------------  -----------------  -----------------  -----------------
         O            0.000000000000     0.000000000000    -0.531802857271    15.994914619570
         N            0.000000000000     0.000000000000     0.607448142729    14.003074004430

  Charge       = 1
  Multiplicity = 1
  Basis Set: CC-PVTZ
    Blend: CC-PVTZ
  Basis Set: (CC-PVTZ AUX)
    Blend: CC-PVTZ-JKFIT

    Orbital Energies [Eh]
    ---------------------

    Alpha Occupied:

       1A1   -19.769988     2A1   -14.980361     3A1    -1.712683
       4A1    -1.106685     1B1    -0.948798     1B2    -0.948798
       5A1    -0.914220

    Alpha Virtual:

       2B2    -0.527420     2B1    -0.527420     6A1    -0.082668
       3B1     0.091080     3B2     0.091080     7A1     0.102124
       8A1     0.152276     9A1     0.223214     4B1     0.282066
       4B2     0.282066     1A2     0.539826    10A1     0.539827
       5B1     0.738195     5B2     0.738195    11A1     0.830686
       2A2     1.138050    12A1     1.138050    13A1     1.256672
       6B2     1.621869     6B1     1.621869    14A1     1.828854
       7B2     2.389918     7B1     2.389918    15A1     2.623519
       8B1     3.107122     8B2     3.107122     3A2     3.329443
      16A1     3.329443     9B1     3.356955     9B2     3.356955
      17A1     3.441681    10B1     3.607982    10B2     3.607982
      18A1     3.847471     4A2     3.920540    19A1     3.920543
      11B2     4.302542    11B1     4.302542    20A1     4.374803
      12B2     4.624792    12B1     4.624792     5A2     5.119909
      21A1     5.119910    22A1     5.712010     6A2     5.712021
      23A1     5.853385    13B2     5.953929    13B1     5.953929
      14B2     6.508691    14B1     6.508691    24A1     6.547515
      25A1     6.680628    26A1    13.098252

    Beta Occupied:

       1A1   -19.769988     2A1   -14.980361     3A1    -1.712683
       4A1    -1.106685     1B1    -0.948798     1B2    -0.948798
       5A1    -0.914220

    Beta Virtual:

       2B2    -0.527420     2B1    -0.527420     6A1    -0.082668
       3B1     0.091080     3B2     0.091080     7A1     0.102124
       8A1     0.152276     9A1     0.223214     4B1     0.282066
       4B2     0.282066     1A2     0.539826    10A1     0.539827
       5B1     0.738195     5B2     0.738195    11A1     0.830686
       2A2     1.138050    12A1     1.138050    13A1     1.256672
       6B2     1.621869     6B1     1.621869    14A1     1.828854
       7B2     2.389918     7B1     2.389918    15A1     2.623519
       8B1     3.107122     8B2     3.107122     3A2     3.329443
      16A1     3.329443     9B1     3.356955     9B2     3.356955
      17A1     3.441681    10B1     3.607982    10B2     3.607982
      18A1     3.847471     4A2     3.920540    19A1     3.920543
      11B2     4.302542    11B1     4.302542    20A1     4.374803
      12B2     4.624792    12B1     4.624792     5A2     5.119909
      21A1     5.119910    22A1     5.712010     6A2     5.712021
      23A1     5.853385    13B2     5.953929    13B1     5.953929
      14B2     6.508691    14B1     6.508691    24A1     6.547515
      25A1     6.680628    26A1    13.098252

    Final Occupation by Irrep:
             A1    A2    B1    B2
    DOCC [     5,    0,    1,    1 ]
    SOCC [     0,    0,    0,    0 ]
    NA   [     5,    0,    1,    1 ]
    NB   [     5,    0,    1,    1 ]

  @DF-UKS Final Energy:  -129.56946697579357

   => Energetics <=

    Nuclear Repulsion Energy =             26.0117601806098939
    One-Electron Energy =                -221.7360659262362788
    Two-Electron Energy =                  78.2012581369014157
    DFT Exchange-Correlation Energy =     -12.0464193670686015
    Empirical Dispersion Energy =           0.0000000000000000
    VV10 Nonlocal Energy =                  0.0000000000000000
    Total Energy =                       -129.5694669757935742

  UHF NO Occupations:
  HONO-2 :    3 A1 2.0000000
  HONO-1 :    4 A1 2.0000000
  HONO-0 :    5 A1 2.0000000
  LUNO+0 :    6 A1 0.0000000
  LUNO+1 :    7 A1 0.0000000
  LUNO+2 :    8 A1 0.0000000
  LUNO+3 :    9 A1 0.0000000

Computation Completed

Properties will be evaluated at   0.000000,   0.000000,   0.000000 [a0]

Properties computed using the B3LYP density matrix

 Multipole Moments:

 ------------------------------------------------------------------------------------
     Multipole            Electronic (a.u.)      Nuclear  (a.u.)        Total (a.u.)
 ------------------------------------------------------------------------------------

 L = 1.  Multiply by 2.5417464519 to convert [e a0] to [Debye]
 Dipole X            :          0.0000000            0.0000000            0.0000000
 Dipole Y            :          0.0000000            0.0000000            0.0000000
 Dipole Z            :          0.2307598           -0.0043196            0.2264402
 Magnitude           :                                                    0.2264402

 L = 2.  Multiply by 1.3450342976 to convert [e a0^2] to [Debye ang]
 Quadrupole XX       :         -5.9450105            0.0000000           -5.9450105
 Quadrupole XY       :          0.0000000            0.0000000            0.0000000
 Quadrupole XZ       :          0.0000000            0.0000000            0.0000000
 Quadrupole YY       :         -5.9450105            0.0000000           -5.9450105
 Quadrupole YZ       :          0.0000000            0.0000000            0.0000000
 Quadrupole ZZ       :        -22.5231288           17.3034766           -5.2196522
 Traceless XX        :          5.5260395           -5.7678255           -0.2417861
 Traceless YY        :          5.5260395           -5.7678255           -0.2417861
 Traceless ZZ        :        -11.0520789           11.5356511            0.4835722

 ------------------------------------------------------------------------------------
  ==> Computing MBIS Charges <==

  Electron Count from Grid (Expected Number): 14.00000 (14.00000)
  Difference:  0.00000

  MBIS Charges: (a.u.)
   Center  Symbol  Z      Pop.       Charge
      1       O    8    7.649084    0.350916
      2       N    7    6.350917    0.649083

  MBIS Dipoles: [e a0]
   Center  Symbol  Z        X           Y           Z
      1       O    8    0.000000   -0.000000   -0.109358
      2       N    7   -0.000000    0.000000   -0.056633

  MBIS Quadrupoles: [e a0^2]
   Center  Symbol  Z      XX        XY        XZ        YY        YZ        ZZ
      1       O    8   -3.0471   -0.0000   -0.0000   -3.0471    0.0000   -3.2353
      2       N    7   -2.8979   -0.0000    0.0000   -2.8979    0.0000   -3.2839

  MBIS Octupoles: [e a0^3]
   Center  Symbol  Z      XXX       XXY       XXZ       XYY       XYZ       XZZ       YYY       YYZ       YZZ       ZZZ
      1       O    8    0.0000   -0.0000   -0.0876    0.0000   -0.0000   -0.0000   -0.0000   -0.0876   -0.0000   -0.2586
      2       N    7   -0.0000    0.0000    0.0398    0.0000    0.0000    0.0000   -0.0000    0.0398    0.0000    0.0378

  MBIS Radial Moments:
   Center  Symbol  Z      [a0^2]      [a0^3]      [a0^4]
      1       O    8    9.329546   16.064204   33.120162
      2       N    7    9.079614   17.230241   38.988369

  MBIS Valence Widths: [a0]
   Center  Symbol  Z     Width
      1       O    8    0.361355
      2       N    7    0.403772

*** tstop() called on Mac.lan at Sun Aug 10 18:42:01 2025
Module time:
	user time   =       4.26 seconds =       0.07 minutes
	system time =       2.45 seconds =       0.04 minutes
	total time  =          1 seconds =       0.02 minutes
Total time:
	user time   =      17.22 seconds =       0.29 minutes
	system time =       4.72 seconds =       0.08 minutes
	total time  =          2 seconds =       0.03 minutes

    Psi4 stopped on: Sunday, 10 August 2025 06:42PM
    Psi4 wall time for execution: 0:00:02.14

*** Psi4 exiting successfully. Buy a developer a beer!
