                               Psi4 1.9.1 release

  ==> Input File <==

--------------------------------------------------------------------------
molecule {
1 4
C           0.000000           0.000000           0.000000
C           0.000000           0.000000           1.613820
}

set {
basis              cc-pvtz
reference          uks
maxiter            500
DAMPING_PERCENTAGE 1
E_CONVERGENCE      1.0E-8
D_CONVERGENCE      1.0E-8
DIIS_MAX_VECS      400
MBIS_MAXITER       8000
guess              read
}

E, wfn = energy('b3lyp', restart_file='last_wfn', return_wfn=True)
properties('b3lyp','MBIS_CHARGES', wfn=wfn)
wfn.to_file('last_wfn')
--------------------------------------------------------------------------

    Molecular point group: d2h
  Charge       = 1
  Multiplicity = 4
  Basis Set: CC-PVTZ
    Blend: CC-PVTZ
  Basis Set: (CC-PVTZ AUX)
    Blend: CC-PVTZ-JKFIT
  @DF-UKS Final Energy:   -75.48561528841796
    Total Energy =                        -75.4856152884179608
 Dipole X            :          0.0000000            0.0000000            0.0000000
 Dipole Y            :          0.0000000            0.0000000            0.0000000
 Dipole Z            :          0.0000000            0.0000000            0.0000000
 Magnitude           :                                                    0.0000000
    Molecular point group: d2h

    Geometry (in Angstrom), charge = 1, multiplicity = 4:

       Center              X                  Y                   Z               Mass
    ------------   -----------------  -----------------  -----------------  -----------------
         C            0.000000000000     0.000000000000    -0.806910000000    12.000000000000
         C            0.000000000000     0.000000000000     0.806910000000    12.000000000000

  Charge       = 1
  Multiplicity = 4
  Basis Set: CC-PVTZ
    Blend: CC-PVTZ
  Basis Set: (CC-PVTZ AUX)
    Blend: CC-PVTZ-JKFIT

    Orbital Energies [Eh]
    ---------------------

    Alpha Occupied:

       1Ag   -10.724265     1B1u  -10.723995     2Ag    -1.115752
       2B1u   -0.846877     3Ag    -0.691820     1B3u   -0.667985
       1B2u   -0.667985

    Alpha Virtual:

       1B2g   -0.456562     1B3g   -0.456562     3B1u   -0.209551
       2B2u    0.013097     2B3u    0.013097     4B1u    0.018544
       4Ag     0.030607     5Ag     0.045561     2B3g    0.094446
       2B2g    0.094446     1B1g    0.244760     6Ag     0.244760
       3B2u    0.304676     3B3u    0.304676     5B1u    0.346729
       1Au     0.473162     6B1u    0.473162     7Ag     0.765841
       3B3g    0.772748     3B2g    0.772748     7B1u    0.804805
       4B2u    1.515945     4B3u    1.515945     8Ag     1.600566
       4B3g    1.662860     4B2g    1.662860     5B2u    2.025145
       5B3u    2.025145     2B1g    2.031901     9Ag     2.031902
      10Ag     2.107973     8B1u    2.168710     6B3u    2.211094
       6B2u    2.211094     5B2g    2.358118     5B3g    2.358118
      11Ag     2.499828     3B1g    2.499831     9B1u    2.539523
       2Au     2.539525    10B1u    2.588132     6B2g    2.678861
       6B3g    2.678861    11B1u    2.748694     3Au     2.748695
       7B3u    2.757394     7B2u    2.757394    12B1u    3.073322
      12Ag     3.283551     7B2g    3.459001     7B3g    3.459001
      13Ag     3.551260    13B1u    6.319297

    Beta Occupied:

       1Ag   -10.699739     1B1u  -10.699672     2Ag    -1.019691
       2B1u   -0.730455

    Beta Virtual:

       3Ag    -0.524066     1B3u   -0.514333     1B2u   -0.514333
       1B2g   -0.358785     1B3g   -0.358785     3B1u   -0.137316
       2B2u    0.040938     2B3u    0.040938     4B1u    0.056611
       4Ag     0.062258     5Ag     0.078442     2B3g    0.117214
       2B2g    0.117214     1B1g    0.295486     6Ag     0.295486
       3B3u    0.365686     3B2u    0.365686     5B1u    0.373665
       1Au     0.517901     6B1u    0.517901     3B3g    0.817318
       3B2g    0.817318     7Ag     0.821525     7B1u    0.846668
       4B2u    1.572945     4B3u    1.572945     8Ag     1.661562
       4B3g    1.718345     4B2g    1.718345     5B2u    2.088298
       5B3u    2.088298     2B1g    2.099406     9Ag     2.099407
      10Ag     2.177368     8B1u    2.225665     6B3u    2.276741
       6B2u    2.276741     5B2g    2.423086     5B3g    2.423086
      11Ag     2.583868     3B1g    2.583871     9B1u    2.615631
       2Au     2.615633    10B1u    2.665837     6B2g    2.759806
       6B3g    2.759806    11B1u    2.821558     3Au     2.821558
       7B3u    2.842473     7B2u    2.842473    12B1u    3.138422
      12Ag     3.349062     7B2g    3.525877     7B3g    3.525877
      13Ag     3.607644    13B1u    6.364953

    Final Occupation by Irrep:
             Ag   B1g   B2g   B3g    Au   B1u   B2u   B3u
    DOCC [     2,    0,    0,    0,    0,    2,    0,    0 ]
    SOCC [     1,    0,    0,    0,    0,    0,    1,    1 ]
    NA   [     3,    0,    0,    0,    0,    2,    1,    1 ]
    NB   [     2,    0,    0,    0,    0,    2,    0,    0 ]

  @DF-UKS Final Energy:   -75.48561528886481

   => Energetics <=

    Nuclear Repulsion Energy =             11.8045256497750675
    One-Electron Energy =                -120.0805697188530416
    Two-Electron Energy =                  40.9832177318250430
    DFT Exchange-Correlation Energy =      -8.1927889516118881
    Empirical Dispersion Energy =           0.0000000000000000
    VV10 Nonlocal Energy =                  0.0000000000000000
    Total Energy =                        -75.4856152888648211

  UHF NO Occupations:
  HONO-2 :    3 Ag 1.0000000
  HONO-1 :    1B2u 1.0000000
  HONO-0 :    1B3u 1.0000000
  LUNO+0 :    3B1u 0.0015480
  LUNO+1 :    4 Ag 0.0001184
  LUNO+2 :    4B1u 0.0000008
  LUNO+3 :    5 Ag 0.0000006

Computation Completed

Properties will be evaluated at   0.000000,   0.000000,   0.000000 [a0]

Properties computed using the B3LYP density matrix

 Multipole Moments:

 ------------------------------------------------------------------------------------
     Multipole            Electronic (a.u.)      Nuclear  (a.u.)        Total (a.u.)
 ------------------------------------------------------------------------------------

 L = 1.  Multiply by 2.5417464519 to convert [e a0] to [Debye]
 Dipole X            :          0.0000000            0.0000000            0.0000000
 Dipole Y            :          0.0000000            0.0000000            0.0000000
 Dipole Z            :          0.0000000            0.0000000            0.0000000
 Magnitude           :                                                    0.0000000

 L = 2.  Multiply by 1.3450342976 to convert [e a0^2] to [Debye ang]
 Quadrupole XX       :         -6.6864639            0.0000000           -6.6864639
 Quadrupole XY       :          0.0000000            0.0000000            0.0000000
 Quadrupole XZ       :          0.0000000            0.0000000            0.0000000
 Quadrupole YY       :         -6.6864639            0.0000000           -6.6864639
 Quadrupole YZ       :          0.0000000            0.0000000            0.0000000
 Quadrupole ZZ       :        -32.2308589           27.9016043           -4.3292546
 Traceless XX        :          8.5147983           -9.3005348           -0.7857364
 Traceless YY        :          8.5147983           -9.3005348           -0.7857364
 Traceless ZZ        :        -17.0295967           18.6010696            1.5714729

 ------------------------------------------------------------------------------------
  ==> Computing MBIS Charges <==

  Electron Count from Grid (Expected Number): 11.00000 (11.00000)
  Difference:  0.00000

  MBIS Charges: (a.u.)
   Center  Symbol  Z      Pop.       Charge
      1       C    6    5.500000    0.500000
      2       C    6    5.500000    0.500000

  MBIS Dipoles: [e a0]
   Center  Symbol  Z        X           Y           Z
      1       C    6   -0.000000   -0.000000   -0.132500
      2       C    6   -0.000000    0.000000    0.132500

  MBIS Quadrupoles: [e a0^2]
   Center  Symbol  Z      XX        XY        XZ        YY        YZ        ZZ
      1       C    6   -3.3432    0.0000   -0.0000   -3.3432   -0.0000   -3.7313
      2       C    6   -3.3432    0.0000    0.0000   -3.3432    0.0000   -3.7313

  MBIS Octupoles: [e a0^3]
   Center  Symbol  Z      XXX       XXY       XXZ       XYY       XYZ       XZZ       YYY       YYZ       YZZ       ZZZ
      1       C    6   -0.0000    0.0000   -0.1825   -0.0000   -0.0000   -0.0000    0.0000   -0.1825    0.0000   -0.6293
      2       C    6   -0.0000    0.0000    0.1825   -0.0000    0.0000   -0.0000    0.0000    0.1825    0.0000    0.6293

  MBIS Radial Moments:
   Center  Symbol  Z      [a0^2]      [a0^3]      [a0^4]
      1       C    6   10.417741   23.203218   61.493174
      2       C    6   10.417741   23.203218   61.493174

  MBIS Valence Widths: [a0]
   Center  Symbol  Z     Width
      1       C    6    0.481231
      2       C    6    0.481231

*** tstop() called on Mac.lan at Sun Aug 10 18:22:52 2025
Module time:
	user time   =       4.41 seconds =       0.07 minutes
	system time =       2.07 seconds =       0.03 minutes
	total time  =          0 seconds =       0.00 minutes
Total time:
	user time   =      15.62 seconds =       0.26 minutes
	system time =       4.40 seconds =       0.07 minutes
	total time  =          2 seconds =       0.03 minutes

    Psi4 stopped on: Sunday, 10 August 2025 06:22PM
    Psi4 wall time for execution: 0:00:01.97

*** Psi4 exiting successfully. Buy a developer a beer!
