                               Psi4 1.9.1 release

  ==> Input File <==

--------------------------------------------------------------------------
molecule {
1 3
N           0.000000           0.000000           0.000000
C           0.000000           0.000000           1.304452
}

set {
basis              cc-pvtz
reference          uks
maxiter            500
DAMPING_PERCENTAGE 1
E_CONVERGENCE      1.0E-8
D_CONVERGENCE      1.0E-8
DIIS_MAX_VECS      400
MBIS_MAXITER       8000
guess              read
}

E, wfn = energy('b3lyp', restart_file='last_wfn', return_wfn=True)
properties('b3lyp','MBIS_CHARGES', wfn=wfn)
wfn.to_file('last_wfn')
--------------------------------------------------------------------------

    Molecular point group: c2v
  Charge       = 1
  Multiplicity = 3
  Basis Set: CC-PVTZ
    Blend: CC-PVTZ
  Basis Set: (CC-PVTZ AUX)
    Blend: CC-PVTZ-JKFIT
  @DF-UKS Final Energy:   -92.22412072166723
    Total Energy =                        -92.2241207216672336
 Dipole X            :          0.0000000            0.0000000            0.0000000
 Dipole Y            :          0.0000000            0.0000000            0.0000000
 Dipole Z            :          0.6820349            0.0017485            0.6837834
 Magnitude           :                                                    0.6837834
    Molecular point group: c2v

    Geometry (in Angstrom), charge = 1, multiplicity = 3:

       Center              X                  Y                   Z               Mass
    ------------   -----------------  -----------------  -----------------  -----------------
         N            0.000000000000     0.000000000000    -0.601983596145    14.003074004430
         C            0.000000000000     0.000000000000     0.702468403855    12.000000000000

  Charge       = 1
  Multiplicity = 3
  Basis Set: CC-PVTZ
    Blend: CC-PVTZ
  Basis Set: (CC-PVTZ AUX)
    Blend: CC-PVTZ-JKFIT

    Orbital Energies [Eh]
    ---------------------

    Alpha Occupied:

       1A1   -14.859646     2A1   -10.775703     3A1    -1.352925
       4A1    -0.914247     1B1    -0.800236     5A1    -0.791018
       1B2    -0.758151

    Alpha Virtual:

       2B1    -0.468705     2B2    -0.436628     6A1    -0.116949
       3B1    -0.000362     7A1     0.005468     3B2     0.009473
       8A1     0.056530     9A1     0.152663     4B1     0.197624
       4B2     0.215834     1A2     0.276786    10A1     0.277258
       5B1     0.415345     5B2     0.437399    11A1     0.560776
       2A2     0.759115    12A1     0.759497    13A1     0.789982
       6B1     1.094810     6B2     1.117334    14A1     1.337893
       7B1     1.573934     7B2     1.594100    15A1     1.755093
       8B1     2.235419     8B2     2.235531    16A1     2.258703
       3A2     2.258713     9B1     2.270371     9B2     2.300483
      17A1     2.443035    10B1     2.477620    18A1     2.501687
       4A2     2.502002    10B2     2.507457    19A1     2.586806
      11B1     2.907935    11B2     2.934831    20A1     3.135938
      12B1     3.476505    12B2     3.476654    21A1     3.797552
       5A2     3.797703    22A1     4.065199     6A2     4.065327
      13B1     4.232762    13B2     4.270989    23A1     4.290266
      14B1     4.780498    24A1     4.786067    14B2     4.811218
      25A1     5.020473    26A1     9.717477

    Beta Occupied:

       1A1   -14.840083     2A1   -10.753756     3A1    -1.284316
       4A1    -0.820050     1B2    -0.736625

    Beta Virtual:

       1B1    -0.623828     5A1    -0.608503     2B2    -0.402890
       2B1    -0.366638     6A1    -0.089466     3B2     0.016648
       3B1     0.022606     7A1     0.038998     8A1     0.108351
       9A1     0.182190     4B2     0.220847     4B1     0.231435
       1A2     0.305910    10A1     0.308049     5B2     0.470856
       5B1     0.476230    11A1     0.585369     2A2     0.791691
      12A1     0.794409    13A1     0.836790     6B2     1.139782
       6B1     1.145297    14A1     1.374826     7B2     1.612089
       7B1     1.619978    15A1     1.818501     8B2     2.275643
       8B1     2.276472     3A2     2.302060    16A1     2.304634
       9B2     2.327261     9B1     2.343851    17A1     2.502128
      10B2     2.553787     4A2     2.562738    18A1     2.567008
      10B1     2.569366    19A1     2.666344    11B2     2.983431
      11B1     2.991806    20A1     3.199246    12B2     3.519889
      12B1     3.521254     5A2     3.845548    21A1     3.850463
       6A2     4.118448    22A1     4.124235    13B2     4.302937
      13B1     4.323173    23A1     4.346083    24A1     4.838502
      14B2     4.840915    14B1     4.848551    25A1     5.054109
      26A1     9.754456

    Final Occupation by Irrep:
             A1    A2    B1    B2
    DOCC [     4,    0,    0,    1 ]
    SOCC [     1,    0,    1,    0 ]
    NA   [     5,    0,    1,    1 ]
    NB   [     4,    0,    0,    1 ]

  @DF-UKS Final Energy:   -92.22412072364270

   => Energetics <=

    Nuclear Repulsion Energy =             17.0381454036944255
    One-Electron Energy =                -153.0127341741057307
    Two-Electron Energy =                  53.2197626890263464
    DFT Exchange-Correlation Energy =      -9.4692946422577187
    Empirical Dispersion Energy =           0.0000000000000000
    VV10 Nonlocal Energy =                  0.0000000000000000
    Total Energy =                        -92.2241207236426987

  UHF NO Occupations:
  HONO-2 :    4 A1 1.9987157
  HONO-1 :    5 A1 1.0000000
  HONO-0 :    1 B1 1.0000000
  LUNO+0 :    6 A1 0.0012843
  LUNO+1 :    2 B2 0.0008874
  LUNO+2 :    7 A1 0.0003171
  LUNO+3 :    8 A1 0.0000005

Computation Completed

Properties will be evaluated at   0.000000,   0.000000,   0.000000 [a0]

Properties computed using the B3LYP density matrix

 Multipole Moments:

 ------------------------------------------------------------------------------------
     Multipole            Electronic (a.u.)      Nuclear  (a.u.)        Total (a.u.)
 ------------------------------------------------------------------------------------

 L = 1.  Multiply by 2.5417464519 to convert [e a0] to [Debye]
 Dipole X            :          0.0000000            0.0000000            0.0000000
 Dipole Y            :          0.0000000            0.0000000            0.0000000
 Dipole Z            :          0.6820348            0.0017485            0.6837832
 Magnitude           :                                                    0.6837832

 L = 2.  Multiply by 1.3450342976 to convert [e a0^2] to [Debye ang]
 Quadrupole XX       :         -5.8289355            0.0000000           -5.8289355
 Quadrupole XY       :          0.0000000            0.0000000            0.0000000
 Quadrupole XZ       :          0.0000000            0.0000000            0.0000000
 Quadrupole YY       :         -6.8694616            0.0000000           -6.8694616
 Quadrupole YZ       :          0.0000000            0.0000000            0.0000000
 Quadrupole ZZ       :        -24.0634602           19.6317893           -4.4316709
 Traceless XX        :          6.4250169           -6.5439298           -0.1189128
 Traceless YY        :          5.3844909           -6.5439298           -1.1594389
 Traceless ZZ        :        -11.8095078           13.0878595            1.2783517

 ------------------------------------------------------------------------------------
  ==> Computing MBIS Charges <==

  Electron Count from Grid (Expected Number): 12.00000 (12.00000)
  Difference:  0.00000

  MBIS Charges: (a.u.)
   Center  Symbol  Z      Pop.       Charge
      1       N    7    6.757600    0.242400
      2       C    6    5.242401    0.757599

  MBIS Dipoles: [e a0]
   Center  Symbol  Z        X           Y           Z
      1       N    7    0.000000   -0.000000   -0.189105
      2       C    6   -0.000000    0.000000    0.142946

  MBIS Quadrupoles: [e a0^2]
   Center  Symbol  Z      XX        XY        XZ        YY        YZ        ZZ
      1       N    7   -3.1621   -0.0000   -0.0000   -3.7254   -0.0000   -3.7464
      2       C    6   -2.6668    0.0000   -0.0000   -3.1440    0.0000   -3.1437

  MBIS Octupoles: [e a0^3]
   Center  Symbol  Z      XXX       XXY       XXZ       XYY       XYZ       XZZ       YYY       YYZ       YZZ       ZZZ
      1       N    7    0.0000   -0.0000   -0.1394    0.0000    0.0000   -0.0000   -0.0000   -0.2956    0.0000   -0.5657
      2       C    6   -0.0000   -0.0000    0.0823   -0.0000   -0.0000    0.0000    0.0000    0.2472    0.0000    0.3587

  MBIS Radial Moments:
   Center  Symbol  Z      [a0^2]      [a0^3]      [a0^4]
      1       N    7   10.633987   21.020023   49.523858
      2       C    6    8.954560   19.122450   48.646525

  MBIS Valence Widths: [a0]
   Center  Symbol  Z     Width
      1       N    7    0.419977
      2       C    6    0.460384

*** tstop() called on Mac.lan at Sun Aug 10 18:33:44 2025
Module time:
	user time   =       3.92 seconds =       0.07 minutes
	system time =       2.65 seconds =       0.04 minutes
	total time  =          0 seconds =       0.00 minutes
Total time:
	user time   =      28.14 seconds =       0.47 minutes
	system time =       5.39 seconds =       0.09 minutes
	total time  =          3 seconds =       0.05 minutes

    Psi4 stopped on: Sunday, 10 August 2025 06:33PM
    Psi4 wall time for execution: 0:00:03.31

*** Psi4 exiting successfully. Buy a developer a beer!
