                               Psi4 1.9.1 release

  ==> Input File <==

--------------------------------------------------------------------------
molecule {
1 2
N           0.000000           0.000000           0.000000
N           0.000000           0.000000           1.109283
}

set {
basis              cc-pvtz
reference          uks
maxiter            500
DAMPING_PERCENTAGE 1
E_CONVERGENCE      1.0E-8
D_CONVERGENCE      1.0E-8
DIIS_MAX_VECS      400
MBIS_MAXITER       8000
guess              read
}

E, wfn = energy('b3lyp', restart_file='last_wfn', return_wfn=True)
properties('b3lyp','MBIS_CHARGES', wfn=wfn)
wfn.to_file('last_wfn')
--------------------------------------------------------------------------

    Molecular point group: d2h
  Charge       = 1
  Multiplicity = 2
  Basis Set: CC-PVTZ
    Blend: CC-PVTZ
  Basis Set: (CC-PVTZ AUX)
    Blend: CC-PVTZ-JKFIT
  @DF-UKS Final Energy:  -108.98805823222732
    Total Energy =                       -108.9880582322273170
 Dipole X            :          0.0000000            0.0000000            0.0000000
 Dipole Y            :          0.0000000            0.0000000            0.0000000
 Dipole Z            :          0.0000000            0.0000000            0.0000000
 Magnitude           :                                                    0.0000000
    Molecular point group: d2h

    Geometry (in Angstrom), charge = 1, multiplicity = 2:

       Center              X                  Y                   Z               Mass
    ------------   -----------------  -----------------  -----------------  -----------------
         N            0.000000000000     0.000000000000    -0.554641500000    14.003074004430
         N            0.000000000000     0.000000000000     0.554641500000    14.003074004430

  Charge       = 1
  Multiplicity = 2
  Basis Set: CC-PVTZ
    Blend: CC-PVTZ
  Basis Set: (CC-PVTZ AUX)
    Blend: CC-PVTZ-JKFIT

    Orbital Energies [Eh]
    ---------------------

    Alpha Occupied:

       1Ag   -14.920211     1B1u  -14.918569     2Ag    -1.569600
       2B1u   -1.017553     3Ag    -0.906763     1B3u   -0.885269
       1B2u   -0.885269

    Alpha Virtual:

       1B2g   -0.451221     1B3g   -0.451221     3B1u   -0.000480
       2B2u    0.077434     2B3u    0.077434     4Ag     0.104127
       5Ag     0.126779     2B2g    0.219813     2B3g    0.219813
       4B1u    0.239072     1B1g    0.469219     6Ag     0.469219
       5B1u    0.543602     3B3u    0.688106     3B2u    0.688106
       1Au     0.894599     6B1u    0.894599     7Ag     1.295439
       3B2g    1.307028     3B3g    1.307028     7B1u    1.482055
       4B2u    2.318786     4B3u    2.318786     8Ag     2.471426
       4B3g    2.650563     4B2g    2.650563     8B1u    2.931223
       2B1g    3.037116     9Ag     3.037116     5B2u    3.138419
       5B3u    3.138419     6B3u    3.200808     6B2u    3.200808
      10Ag     3.465263     5B2g    3.661652     5B3g    3.661652
       3B1g    3.907600    11Ag     3.907603     6B2g    4.026884
       6B3g    4.026884     2Au     4.044664     9B1u    4.044667
      10B1u    4.142195     3Au     4.459778    11B1u    4.459778
       7B2u    4.515926     7B3u    4.515926    12Ag     4.697793
      12B1u    5.176688     7B2g    5.908787     7B3g    5.908787
      13Ag     5.920382    13B1u   15.076116

    Beta Occupied:

       1Ag   -14.906881     1B1u  -14.905502     2Ag    -1.539808
       2B1u   -0.926217     1B3u   -0.872258     1B2u   -0.872258

    Beta Virtual:

       3Ag    -0.726258     1B2g   -0.428076     1B3g   -0.428076
       3B1u    0.010111     2B2u    0.081469     2B3u    0.081469
       4Ag     0.121359     5Ag     0.153997     2B2g    0.225348
       2B3g    0.225348     4B1u    0.302728     1B1g    0.473013
       6Ag     0.473013     5B1u    0.549910     3B3u    0.719944
       3B2u    0.719944     1Au     0.904677     6B1u    0.904677
       3B2g    1.333441     3B3g    1.333441     7Ag     1.335839
       7B1u    1.520951     4B2u    2.329513     4B3u    2.329513
       8Ag     2.508587     4B3g    2.659897     4B2g    2.659897
       8B1u    2.981947     2B1g    3.055883     9Ag     3.055883
       5B2u    3.171774     5B3u    3.171774     6B3u    3.206341
       6B2u    3.206341    10Ag     3.539374     5B2g    3.668776
       5B3g    3.668776     3B1g    3.923930    11Ag     3.923933
       2Au     4.056774     9B1u    4.056777     6B2g    4.088886
       6B3g    4.088886    10B1u    4.191943     3Au     4.485796
      11B1u    4.485797     7B2u    4.571250     7B3u    4.571250
      12Ag     4.733730    12B1u    5.239362     7B2g    5.942350
       7B3g    5.942350    13Ag     5.959771    13B1u   15.094909

    Final Occupation by Irrep:
             Ag   B1g   B2g   B3g    Au   B1u   B2u   B3u
    DOCC [     2,    0,    0,    0,    0,    2,    1,    1 ]
    SOCC [     1,    0,    0,    0,    0,    0,    0,    0 ]
    NA   [     3,    0,    0,    0,    0,    2,    1,    1 ]
    NB   [     2,    0,    0,    0,    0,    2,    1,    1 ]

  @DF-UKS Final Energy:  -108.98805823228520

   => Energetics <=

    Nuclear Repulsion Energy =             23.3751741646000148
    One-Electron Energy =                -187.8763018885207146
    Two-Electron Energy =                  66.2439100429373298
    DFT Exchange-Correlation Energy =     -10.7308405513018457
    Empirical Dispersion Energy =           0.0000000000000000
    VV10 Nonlocal Energy =                  0.0000000000000000
    Total Energy =                       -108.9880582322851978

  UHF NO Occupations:
  HONO-2 :    2 Ag 1.9998904
  HONO-1 :    2B1u 1.9983244
  HONO-0 :    3 Ag 1.0000000
  LUNO+0 :    3B1u 0.0016756
  LUNO+1 :    4 Ag 0.0001096
  LUNO+2 :    2B3u 0.0000921
  LUNO+3 :    2B2u 0.0000921

Computation Completed

Properties will be evaluated at   0.000000,   0.000000,   0.000000 [a0]

Properties computed using the B3LYP density matrix

 Multipole Moments:

 ------------------------------------------------------------------------------------
     Multipole            Electronic (a.u.)      Nuclear  (a.u.)        Total (a.u.)
 ------------------------------------------------------------------------------------

 L = 1.  Multiply by 2.5417464519 to convert [e a0] to [Debye]
 Dipole X            :          0.0000000            0.0000000            0.0000000
 Dipole Y            :          0.0000000            0.0000000            0.0000000
 Dipole Z            :          0.0000000            0.0000000            0.0000000
 Magnitude           :                                                    0.0000000

 L = 2.  Multiply by 1.3450342976 to convert [e a0^2] to [Debye ang]
 Quadrupole XX       :         -6.1775211            0.0000000           -6.1775211
 Quadrupole XY       :          0.0000000            0.0000000            0.0000000
 Quadrupole XZ       :          0.0000000            0.0000000            0.0000000
 Quadrupole YY       :         -6.1775211            0.0000000           -6.1775211
 Quadrupole YZ       :          0.0000000            0.0000000            0.0000000
 Quadrupole ZZ       :        -19.7448051           15.3797931           -4.3650120
 Traceless XX        :          4.5224280           -5.1265977           -0.6041697
 Traceless YY        :          4.5224280           -5.1265977           -0.6041697
 Traceless ZZ        :         -9.0448561           10.2531954            1.2083394

 ------------------------------------------------------------------------------------
  ==> Computing MBIS Charges <==

  Electron Count from Grid (Expected Number): 13.00000 (13.00000)
  Difference:  0.00000

  MBIS Charges: (a.u.)
   Center  Symbol  Z      Pop.       Charge
      1       N    7    6.500000    0.500000
      2       N    7    6.500000    0.500000

  MBIS Dipoles: [e a0]
   Center  Symbol  Z        X           Y           Z
      1       N    7   -0.000000   -0.000000   -0.226861
      2       N    7   -0.000000   -0.000000    0.226861

  MBIS Quadrupoles: [e a0^2]
   Center  Symbol  Z      XX        XY        XZ        YY        YZ        ZZ
      1       N    7   -3.0888    0.0000   -0.0000   -3.0888   -0.0000   -3.2073
      2       N    7   -3.0888    0.0000    0.0000   -3.0888    0.0000   -3.2073

  MBIS Octupoles: [e a0^3]
   Center  Symbol  Z      XXX       XXY       XXZ       XYY       XYZ       XZZ       YYY       YYZ       YZZ       ZZZ
      1       N    7   -0.0000   -0.0000   -0.2069   -0.0000    0.0000    0.0000   -0.0000   -0.2069   -0.0000   -0.4779
      2       N    7   -0.0000   -0.0000    0.2069   -0.0000   -0.0000    0.0000   -0.0000    0.2069   -0.0000    0.4779

  MBIS Radial Moments:
   Center  Symbol  Z      [a0^2]      [a0^3]      [a0^4]
      1       N    7    9.384860   17.820304   40.350343
      2       N    7    9.384860   17.820304   40.350343

  MBIS Valence Widths: [a0]
   Center  Symbol  Z     Width
      1       N    7    0.404033
      2       N    7    0.404033

*** tstop() called on Mac.lan at Sun Aug 10 18:24:02 2025
Module time:
	user time   =       6.25 seconds =       0.10 minutes
	system time =       2.30 seconds =       0.04 minutes
	total time  =          0 seconds =       0.00 minutes
Total time:
	user time   =      51.11 seconds =       0.85 minutes
	system time =       5.34 seconds =       0.09 minutes
	total time  =          5 seconds =       0.08 minutes

    Psi4 stopped on: Sunday, 10 August 2025 06:24PM
    Psi4 wall time for execution: 0:00:05.70

*** Psi4 exiting successfully. Buy a developer a beer!
