                               Psi4 1.9.1 release

  ==> Input File <==

--------------------------------------------------------------------------
molecule {
1 2
O           0.000000           0.000000           0.000000
O           0.000000           0.000000           1.293709
}

set {
basis              cc-pvtz
reference          uks
maxiter            500
DAMPING_PERCENTAGE 1
E_CONVERGENCE      1.0E-8
D_CONVERGENCE      1.0E-8
DIIS_MAX_VECS      400
MBIS_MAXITER       8000
guess              read
}

E, wfn = energy('b3lyp', restart_file='last_wfn', return_wfn=True)
properties('b3lyp','MBIS_CHARGES', wfn=wfn)
wfn.to_file('last_wfn')
--------------------------------------------------------------------------

    Molecular point group: d2h
  Charge       = 1
  Multiplicity = 2
  Basis Set: CC-PVTZ
    Blend: CC-PVTZ
  Basis Set: (CC-PVTZ AUX)
    Blend: CC-PVTZ-JKFIT
  @DF-UKS Final Energy:  -149.87192308893484
    Total Energy =                       -149.8719230889348353
 Dipole X            :          0.0000000            0.0000000            0.0000000
 Dipole Y            :          0.0000000            0.0000000            0.0000000
 Dipole Z            :          0.0000000            0.0000000            0.0000000
 Magnitude           :                                                    0.0000000
    Molecular point group: d2h

    Geometry (in Angstrom), charge = 1, multiplicity = 2:

       Center              X                  Y                   Z               Mass
    ------------   -----------------  -----------------  -----------------  -----------------
         O            0.000000000000     0.000000000000    -0.646854500000    15.994914619570
         O            0.000000000000     0.000000000000     0.646854500000    15.994914619570

  Charge       = 1
  Multiplicity = 2
  Basis Set: CC-PVTZ
    Blend: CC-PVTZ
  Basis Set: (CC-PVTZ AUX)
    Blend: CC-PVTZ-JKFIT

    Orbital Energies [Eh]
    ---------------------

    Alpha Occupied:

       1Ag   -19.824760     1B1u  -19.824571     2Ag    -1.703957
       2B1u   -1.299727     1B3u   -0.986603     3Ag    -0.983898
       1B2u   -0.944067     1B2g   -0.786564

    Alpha Virtual:

       1B3g   -0.662910     3B1u   -0.352509     4B1u    0.152999
       2B3u    0.156846     2B2u    0.161455     4Ag     0.236231
       5Ag     0.283623     2B2g    0.284569     2B3g    0.291547
       1B1g    0.823705     6Ag     0.824984     3B2u    0.827657
       3B3u    0.830037     5B1u    0.834317     1Au     1.171158
       6B1u    1.172751     7Ag     1.562955     3B2g    1.699393
       3B3g    1.700621     7B1u    1.765049     4B3u    2.923922
       4B2u    2.941101     8Ag     3.041666     4B2g    3.174072
       4B3g    3.189108     8B1u    4.136870     5B2u    4.163026
       5B3u    4.167809     2B1g    4.181554     9Ag     4.182897
      10Ag     4.310314     6B3u    4.489185     6B2u    4.489468
       5B2g    4.648105     5B3g    4.648396     2Au     5.047167
       9B1u    5.048926     3B1g    5.528935    11Ag     5.533010
       6B2g    5.632430     6B3g    5.640144    10B1u    5.706624
       3Au     5.730153    11B1u    5.735369     7B3u    5.788873
       7B2u    5.797477    12B1u    5.923226    12Ag     6.274862
       7B3g    6.525510     7B2g    6.526111    13Ag     7.090214
      13B1u   10.028344

    Beta Occupied:

       1Ag   -19.808408     1B1u  -19.808156     2Ag    -1.672745
       2B1u   -1.252614     3Ag    -0.964694     1B2u   -0.930089
       1B3u   -0.886065

    Beta Virtual:

       1B3g   -0.645424     1B2g   -0.596957     3B1u   -0.330080
       4B1u    0.158593     2B2u    0.166015     2B3u    0.186795
       4Ag     0.240035     5Ag     0.294826     2B3g    0.296241
       2B2g    0.314637     3B2u    0.829289     1B1g    0.846534
       6Ag     0.846574     5B1u    0.849939     3B3u    0.855383
       1Au     1.202424     6B1u    1.202575     7Ag     1.579637
       3B3g    1.704543     3B2g    1.730842     7B1u    1.774554
       4B2u    2.951914     4B3u    2.989750     8Ag     3.051740
       4B3g    3.201241     4B2g    3.241998     8B1u    4.154011
       5B2u    4.166981     5B3u    4.197953     9Ag     4.202398
       2B1g    4.204295    10Ag     4.329807     6B2u    4.527048
       6B3u    4.527095     5B3g    4.686939     5B2g    4.686958
       2Au     5.076589     9B1u    5.076719    11Ag     5.588618
       3B1g    5.588722     6B3g    5.647223     6B2g    5.684300
      10B1u    5.724279     3Au     5.786568    11B1u    5.793669
       7B2u    5.804291     7B3u    5.843353    12B1u    5.938110
      12Ag     6.290302     7B3g    6.529389     7B2g    6.562305
      13Ag     7.118843    13B1u   10.050075

    Final Occupation by Irrep:
             Ag   B1g   B2g   B3g    Au   B1u   B2u   B3u
    DOCC [     3,    0,    0,    0,    0,    2,    1,    1 ]
    SOCC [     0,    0,    1,    0,    0,    0,    0,    0 ]
    NA   [     3,    0,    1,    0,    0,    2,    1,    1 ]
    NB   [     3,    0,    0,    0,    0,    2,    1,    1 ]

  @DF-UKS Final Energy:  -149.87192308869993

   => Energetics <=

    Nuclear Repulsion Energy =             26.1784848701524062
    One-Electron Energy =                -250.8591977395198001
    Two-Electron Energy =                  88.1126735615693661
    DFT Exchange-Correlation Energy =     -13.3038837809018915
    Empirical Dispersion Energy =           0.0000000000000000
    VV10 Nonlocal Energy =                  0.0000000000000000
    Total Energy =                       -149.8719230886999014

  UHF NO Occupations:
  HONO-2 :    2B1u 1.9997200
  HONO-1 :    1B3u 1.9988576
  HONO-0 :    1B2g 1.0000000
  LUNO+0 :    2B3u 0.0011424
  LUNO+1 :    3B1u 0.0002800
  LUNO+2 :    4 Ag 0.0001460
  LUNO+3 :    2B2u 0.0000368

Computation Completed

Properties will be evaluated at   0.000000,   0.000000,   0.000000 [a0]

Properties computed using the B3LYP density matrix

 Multipole Moments:

 ------------------------------------------------------------------------------------
     Multipole            Electronic (a.u.)      Nuclear  (a.u.)        Total (a.u.)
 ------------------------------------------------------------------------------------

 L = 1.  Multiply by 2.5417464519 to convert [e a0] to [Debye]
 Dipole X            :          0.0000000            0.0000000            0.0000000
 Dipole Y            :          0.0000000            0.0000000            0.0000000
 Dipole Z            :          0.0000000            0.0000000            0.0000000
 Magnitude           :                                                    0.0000000

 L = 2.  Multiply by 1.3450342976 to convert [e a0^2] to [Debye ang]
 Quadrupole XX       :         -6.3753910            0.0000000           -6.3753910
 Quadrupole XY       :          0.0000000            0.0000000            0.0000000
 Quadrupole XZ       :          0.0000000            0.0000000            0.0000000
 Quadrupole YY       :         -5.8313540            0.0000000           -5.8313540
 Quadrupole YZ       :          0.0000000            0.0000000            0.0000000
 Quadrupole ZZ       :        -28.3239323           23.9073217           -4.4166107
 Traceless XX        :          7.1348348           -7.9691072           -0.8342724
 Traceless YY        :          7.6788718           -7.9691072           -0.2902354
 Traceless ZZ        :        -14.8137066           15.9382144            1.1245079

 ------------------------------------------------------------------------------------
  ==> Computing MBIS Charges <==

  Electron Count from Grid (Expected Number): 15.00000 (15.00000)
  Difference: -0.00000

  MBIS Charges: (a.u.)
   Center  Symbol  Z      Pop.       Charge
      1       O    8    7.500000    0.500000
      2       O    8    7.500000    0.500000

  MBIS Dipoles: [e a0]
   Center  Symbol  Z        X           Y           Z
      1       O    8   -0.000000   -0.000000   -0.058961
      2       O    8   -0.000000   -0.000000    0.058961

  MBIS Quadrupoles: [e a0^2]
   Center  Symbol  Z      XX        XY        XZ        YY        YZ        ZZ
      1       O    8   -3.1877   -0.0000    0.0000   -2.9157   -0.0000   -3.0996
      2       O    8   -3.1877    0.0000   -0.0000   -2.9157    0.0000   -3.0996

  MBIS Octupoles: [e a0^3]
   Center  Symbol  Z      XXX       XXY       XXZ       XYY       XYZ       XZZ       YYY       YYZ       YZZ       ZZZ
      1       O    8   -0.0000   -0.0000   -0.0486    0.0000   -0.0000   -0.0000   -0.0000   -0.1102   -0.0000   -0.3433
      2       O    8   -0.0000   -0.0000    0.0486    0.0000    0.0000   -0.0000   -0.0000    0.1102   -0.0000    0.3433

  MBIS Radial Moments:
   Center  Symbol  Z      [a0^2]      [a0^3]      [a0^4]
      1       O    8    9.202929   16.030203   33.510047
      2       O    8    9.202929   16.030203   33.510047

  MBIS Valence Widths: [a0]
   Center  Symbol  Z     Width
      1       O    8    0.363270
      2       O    8    0.363270

*** tstop() called on Mac.lan at Sun Aug 10 18:13:42 2025
Module time:
	user time   =       4.84 seconds =       0.08 minutes
	system time =       1.78 seconds =       0.03 minutes
	total time  =          0 seconds =       0.00 minutes
Total time:
	user time   =      14.99 seconds =       0.25 minutes
	system time =       4.35 seconds =       0.07 minutes
	total time  =          2 seconds =       0.03 minutes

    Psi4 stopped on: Sunday, 10 August 2025 06:13PM
    Psi4 wall time for execution: 0:00:01.88

*** Psi4 exiting successfully. Buy a developer a beer!
