                               Psi4 1.9.1 release

  ==> Input File <==

--------------------------------------------------------------------------
molecule {
1 2
N           0.000000           0.000000           0.000000
N           0.000000           0.000000           1.535410
}

set {
basis              cc-pvtz
reference          uks
maxiter            500
DAMPING_PERCENTAGE 1
E_CONVERGENCE      1.0E-8
D_CONVERGENCE      1.0E-8
DIIS_MAX_VECS      400
MBIS_MAXITER       8000
guess              read
}

E, wfn = energy('b3lyp', restart_file='last_wfn', return_wfn=True)
properties('b3lyp','MBIS_CHARGES', wfn=wfn)
wfn.to_file('last_wfn')
--------------------------------------------------------------------------

    Molecular point group: d2h
  Charge       = 1
  Multiplicity = 2
  Basis Set: CC-PVTZ
    Blend: CC-PVTZ
  Basis Set: (CC-PVTZ AUX)
    Blend: CC-PVTZ-JKFIT
  @DF-UKS Final Energy:  -108.80497882229824
    Total Energy =                       -108.8049788222982386
 Dipole X            :          0.0000000            0.0000000            0.0000000
 Dipole Y            :          0.0000000            0.0000000            0.0000000
 Dipole Z            :          0.0000000            0.0000000            0.0000000
 Magnitude           :                                                    0.0000000
    Molecular point group: d2h

    Geometry (in Angstrom), charge = 1, multiplicity = 2:

       Center              X                  Y                   Z               Mass
    ------------   -----------------  -----------------  -----------------  -----------------
         N            0.000000000000     0.000000000000    -0.767705000000    14.003074004430
         N            0.000000000000     0.000000000000     0.767705000000    14.003074004430

  Charge       = 1
  Multiplicity = 2
  Basis Set: CC-PVTZ
    Blend: CC-PVTZ
  Basis Set: (CC-PVTZ AUX)
    Blend: CC-PVTZ-JKFIT

    Orbital Energies [Eh]
    ---------------------

    Alpha Occupied:

       1Ag   -14.952788     1B1u  -14.952600     2Ag    -1.331550
       2B1u   -1.081985     3Ag    -0.854878     1B3u   -0.760485
       1B2u   -0.760485

    Alpha Virtual:

       1B2g   -0.560277     1B3g   -0.560277     3B1u   -0.358108
       4B1u    0.086769     2B2u    0.112695     2B3u    0.112695
       4Ag     0.134483     5Ag     0.170253     2B2g    0.207824
       2B3g    0.207824     3B2u    0.519861     3B3u    0.519861
       5B1u    0.543228     6Ag     0.545110     1B1g    0.545110
       1Au     0.788222     6B1u    0.788222     7Ag     1.046319
       3B2g    1.154180     3B3g    1.154180     7B1u    1.290783
       4B2u    2.277283     4B3u    2.277283     8Ag     2.304188
       4B3g    2.461086     4B2g    2.461086     8B1u    3.027948
       5B3u    3.096577     5B2u    3.096577     9Ag     3.144518
      10Ag     3.158649     2B1g    3.158649     6B3u    3.396671
       6B2u    3.396671     5B2g    3.490585     5B3g    3.490585
       9B1u    3.718702     2Au     3.718704    11Ag     3.915535
       3B1g    3.915544     6B2g    3.993459     6B3g    3.993459
       7B3u    4.057866     7B2u    4.057866    10B1u    4.063149
       3Au     4.063157    11B1u    4.124858    12B1u    4.403234
      12Ag     4.482399     7B2g    4.708322     7B3g    4.708322
      13Ag     5.164727    13B1u    6.960879

    Beta Occupied:

       1Ag   -14.940882     1B1u  -14.940781     2Ag    -1.297921
       2B1u   -1.015703     1B3u   -0.748584     1B2u   -0.748584

    Beta Virtual:

       3Ag    -0.677245     1B2g   -0.544398     1B3g   -0.544398
       3B1u   -0.289902     2B2u    0.116737     2B3u    0.116737
       4B1u    0.119760     4Ag     0.163902     5Ag     0.183026
       2B2g    0.211621     2B3g    0.211621     6Ag     0.547777
       1B1g    0.547777     3B2u    0.550285     3B3u    0.550285
       5B1u    0.554064     1Au     0.792600     6B1u    0.792600
       7Ag     1.087740     3B2g    1.182900     3B3g    1.182900
       7B1u    1.335000     4B2u    2.292053     4B3u    2.292053
       8Ag     2.365475     4B3g    2.468186     4B2g    2.468186
       8B1u    3.073061     5B3u    3.130413     5B2u    3.130413
       9Ag     3.186792    10Ag     3.186829     2B1g    3.186829
       6B3u    3.398963     6B2u    3.398963     5B2g    3.492735
       5B3g    3.492735     9B1u    3.729694     2Au     3.729696
      11Ag     3.919566     3B1g    3.919575     6B2g    4.030835
       6B3g    4.030835    10B1u    4.081398     3Au     4.081406
       7B3u    4.109473     7B2u    4.109473    11B1u    4.194942
      12B1u    4.449967    12Ag     4.548423     7B2g    4.759358
       7B3g    4.759358    13Ag     5.195560    13B1u    6.989465

    Final Occupation by Irrep:
             Ag   B1g   B2g   B3g    Au   B1u   B2u   B3u
    DOCC [     2,    0,    0,    0,    0,    2,    1,    1 ]
    SOCC [     1,    0,    0,    0,    0,    0,    0,    0 ]
    NA   [     3,    0,    0,    0,    0,    2,    1,    1 ]
    NB   [     2,    0,    0,    0,    0,    2,    1,    1 ]

  @DF-UKS Final Energy:  -108.80497882203510

   => Energetics <=

    Nuclear Repulsion Energy =             16.8877910934734032
    One-Electron Energy =                -175.4370392333949553
    Two-Electron Energy =                  60.2327144567087416
    DFT Exchange-Correlation Energy =     -10.4884451388222715
    Empirical Dispersion Energy =           0.0000000000000000
    VV10 Nonlocal Energy =                  0.0000000000000000
    Total Energy =                       -108.8049788220350820

  UHF NO Occupations:
  HONO-2 :    2 Ag 1.9997795
  HONO-1 :    2B1u 1.9956116
  HONO-0 :    3 Ag 1.0000000
  LUNO+0 :    3B1u 0.0043884
  LUNO+1 :    4 Ag 0.0002205
  LUNO+2 :    2B2u 0.0001013
  LUNO+3 :    2B3u 0.0001013

Computation Completed

Properties will be evaluated at   0.000000,   0.000000,   0.000000 [a0]

Properties computed using the B3LYP density matrix

 Multipole Moments:

 ------------------------------------------------------------------------------------
     Multipole            Electronic (a.u.)      Nuclear  (a.u.)        Total (a.u.)
 ------------------------------------------------------------------------------------

 L = 1.  Multiply by 2.5417464519 to convert [e a0] to [Debye]
 Dipole X            :          0.0000000            0.0000000            0.0000000
 Dipole Y            :          0.0000000            0.0000000            0.0000000
 Dipole Z            :          0.0000000            0.0000000            0.0000000
 Magnitude           :                                                    0.0000000

 L = 2.  Multiply by 1.3450342976 to convert [e a0^2] to [Debye ang]
 Quadrupole XX       :         -6.8676137            0.0000000           -6.8676137
 Quadrupole XY       :          0.0000000            0.0000000            0.0000000
 Quadrupole XZ       :          0.0000000            0.0000000            0.0000000
 Quadrupole YY       :         -6.8676137            0.0000000           -6.8676137
 Quadrupole YZ       :          0.0000000            0.0000000            0.0000000
 Quadrupole ZZ       :        -32.3046576           29.4655470           -2.8391106
 Traceless XX        :          8.4790146           -9.8218490           -1.3428344
 Traceless YY        :          8.4790146           -9.8218490           -1.3428344
 Traceless ZZ        :        -16.9580293           19.6436980            2.6856688

 ------------------------------------------------------------------------------------
  ==> Computing MBIS Charges <==

  Electron Count from Grid (Expected Number): 13.00000 (13.00000)
  Difference: -0.00000

  MBIS Charges: (a.u.)
   Center  Symbol  Z      Pop.       Charge
      1       N    7    6.500000    0.500000
      2       N    7    6.500000    0.500000

  MBIS Dipoles: [e a0]
   Center  Symbol  Z        X           Y           Z
      1       N    7   -0.000000    0.000000   -0.297714
      2       N    7    0.000000   -0.000000    0.297714

  MBIS Quadrupoles: [e a0^2]
   Center  Symbol  Z      XX        XY        XZ        YY        YZ        ZZ
      1       N    7   -3.4338    0.0000   -0.0000   -3.4338   -0.0000   -3.3357
      2       N    7   -3.4338    0.0000    0.0000   -3.4338    0.0000   -3.3357

  MBIS Octupoles: [e a0^3]
   Center  Symbol  Z      XXX       XXY       XXZ       XYY       XYZ       XZZ       YYY       YYZ       YZZ       ZZZ
      1       N    7   -0.0000    0.0000   -0.3939    0.0000   -0.0000    0.0000    0.0000   -0.3939    0.0000   -1.0335
      2       N    7    0.0000    0.0000    0.3939    0.0000    0.0000    0.0000   -0.0000    0.3939    0.0000    1.0335

  MBIS Radial Moments:
   Center  Symbol  Z      [a0^2]      [a0^3]      [a0^4]
      1       N    7   10.203329   20.395473   48.632884
      2       N    7   10.203329   20.395473   48.632884

  MBIS Valence Widths: [a0]
   Center  Symbol  Z     Width
      1       N    7    0.422173
      2       N    7    0.422173

*** tstop() called on Mac.lan at Sun Aug 10 18:25:50 2025
Module time:
	user time   =       4.03 seconds =       0.07 minutes
	system time =       2.58 seconds =       0.04 minutes
	total time  =          1 seconds =       0.02 minutes
Total time:
	user time   =      16.82 seconds =       0.28 minutes
	system time =       5.00 seconds =       0.08 minutes
	total time  =          2 seconds =       0.03 minutes

    Psi4 stopped on: Sunday, 10 August 2025 06:25PM
    Psi4 wall time for execution: 0:00:02.17

*** Psi4 exiting successfully. Buy a developer a beer!
