                               Psi4 1.9.1 release

  ==> Input File <==

--------------------------------------------------------------------------
molecule {
1 2
O           0.000000           0.000000           0.000000
C           0.000000           0.000000           0.829095
}

set {
basis              cc-pvtz
reference          uks
maxiter            500
DAMPING_PERCENTAGE 1
E_CONVERGENCE      1.0E-8
D_CONVERGENCE      1.0E-8
DIIS_MAX_VECS      400
MBIS_MAXITER       8000
guess              read
}

E, wfn = energy('b3lyp', restart_file='last_wfn', return_wfn=True)
properties('b3lyp','MBIS_CHARGES', wfn=wfn)
wfn.to_file('last_wfn')
--------------------------------------------------------------------------

    Molecular point group: c2v
  Charge       = 1
  Multiplicity = 2
  Basis Set: CC-PVTZ
    Blend: CC-PVTZ
  Basis Set: (CC-PVTZ AUX)
    Blend: CC-PVTZ-JKFIT
  @DF-UKS Final Energy:  -112.43489359629538
    Total Energy =                       -112.4348935962953817
 Dipole X            :          0.0000000            0.0000000            0.0000000
 Dipole Y            :          0.0000000            0.0000000            0.0000000
 Dipole Z            :          0.8555209           -0.0017076            0.8538132
 Magnitude           :                                                    0.8538132
    Molecular point group: c2v

    Geometry (in Angstrom), charge = 1, multiplicity = 2:

       Center              X                  Y                   Z               Mass
    ------------   -----------------  -----------------  -----------------  -----------------
         O            0.000000000000     0.000000000000    -0.355390974940    15.994914619570
         C            0.000000000000     0.000000000000     0.473704025060    12.000000000000

  Charge       = 1
  Multiplicity = 2
  Basis Set: CC-PVTZ
    Blend: CC-PVTZ
  Basis Set: (CC-PVTZ AUX)
    Blend: CC-PVTZ-JKFIT

    Orbital Energies [Eh]
    ---------------------

    Alpha Occupied:

       1A1   -19.612222     2A1   -10.724197     3A1    -1.724911
       1B1    -1.015055     1B2    -1.015055     4A1    -0.931001
       5A1    -0.874274

    Alpha Virtual:

       2B2    -0.286124     2B1    -0.286124     6A1    -0.101164
       7A1    -0.025794     3B1    -0.022952     3B2    -0.022952
       8A1     0.240704     1A2     0.266578     9A1     0.266578
       4B1     0.324763     4B2     0.324763    10A1     0.478600
       5B1     0.618819     5B2     0.618819    11A1     0.914301
      12A1     1.239269     2A2     1.239269     6B1     1.338327
       6B2     1.338327    13A1     1.352585    14A1     1.649792
       7B1     1.778842     7B2     1.778842     8B2     2.204546
       8B1     2.204546    15A1     2.304124     3A2     2.414497
      16A1     2.414497     9B1     2.546419     9B2     2.546419
       4A2     2.645808    17A1     2.645808    18A1     2.671536
      10B1     3.276787    10B2     3.276787    19A1     3.560196
      11B1     3.858734    11B2     3.858734    12B1     4.800650
      12B2     4.800650    20A1     5.153271     5A2     5.666117
      21A1     5.666118    22A1     5.908943     6A2     5.908944
      23A1     5.999656    13B2     6.143296    13B1     6.143296
      24A1     6.695177    14B2     6.877001    14B1     6.877001
      25A1     8.940490    26A1    15.816723

    Beta Occupied:

       1A1   -19.612613     2A1   -10.699255     3A1    -1.718641
       1B1    -1.005312     1B2    -1.005312     4A1    -0.931132

    Beta Virtual:

       5A1    -0.626919     2B2    -0.243071     2B1    -0.243071
       6A1    -0.088554     3B1    -0.010130     3B2    -0.010130
       7A1     0.016055     8A1     0.259316     1A2     0.286033
       9A1     0.286033     4B1     0.328629     4B2     0.328629
      10A1     0.526578     5B1     0.650857     5B2     0.650857
      11A1     0.922080     2A2     1.241879    12A1     1.241879
       6B1     1.358852     6B2     1.358852    13A1     1.421514
      14A1     1.683713     7B1     1.802841     7B2     1.802841
       8B2     2.238578     8B1     2.238578    15A1     2.359415
       3A2     2.477359    16A1     2.477359     9B1     2.652470
       9B2     2.652470     4A2     2.688459    17A1     2.688462
      18A1     2.766364    10B2     3.296861    10B1     3.296861
      19A1     3.603426    11B1     3.881629    11B2     3.881629
      12B1     4.797642    12B2     4.797642    20A1     5.172960
       5A2     5.669351    21A1     5.669352    22A1     5.905588
       6A2     5.905588    23A1     6.015482    13B2     6.145723
      13B1     6.145723    24A1     6.706793    14B2     6.899876
      14B1     6.899876    25A1     8.955014    26A1    15.849259

    Final Occupation by Irrep:
             A1    A2    B1    B2
    DOCC [     4,    0,    1,    1 ]
    SOCC [     1,    0,    0,    0 ]
    NA   [     5,    0,    1,    1 ]
    NB   [     4,    0,    1,    1 ]

  @DF-UKS Final Energy:  -112.43489359668571

   => Energetics <=

    Nuclear Repulsion Energy =             30.6364241880122314
    One-Electron Energy =                -207.1364443033593830
    Two-Electron Energy =                  75.3940489677606251
    DFT Exchange-Correlation Energy =     -11.3289224490991867
    Empirical Dispersion Energy =           0.0000000000000000
    VV10 Nonlocal Energy =                  0.0000000000000000
    Total Energy =                       -112.4348935966857113

  UHF NO Occupations:
  HONO-2 :    1 B1 1.9989199
  HONO-1 :    1 B2 1.9989199
  HONO-0 :    5 A1 1.0000000
  LUNO+0 :    2 B2 0.0010801
  LUNO+1 :    2 B1 0.0010801
  LUNO+2 :    6 A1 0.0000123
  LUNO+3 :    7 A1 0.0000017

Computation Completed

Properties will be evaluated at   0.000000,   0.000000,   0.000000 [a0]

Properties computed using the B3LYP density matrix

 Multipole Moments:

 ------------------------------------------------------------------------------------
     Multipole            Electronic (a.u.)      Nuclear  (a.u.)        Total (a.u.)
 ------------------------------------------------------------------------------------

 L = 1.  Multiply by 2.5417464519 to convert [e a0] to [Debye]
 Dipole X            :          0.0000000            0.0000000            0.0000000
 Dipole Y            :          0.0000000            0.0000000            0.0000000
 Dipole Z            :          0.8555209           -0.0017076            0.8538132
 Magnitude           :                                                    0.8538132

 L = 2.  Multiply by 1.3450342976 to convert [e a0^2] to [Debye ang]
 Quadrupole XX       :         -5.2683776            0.0000000           -5.2683776
 Quadrupole XY       :          0.0000000            0.0000000            0.0000000
 Quadrupole XZ       :          0.0000000            0.0000000            0.0000000
 Quadrupole YY       :         -5.2683776            0.0000000           -5.2683776
 Quadrupole YZ       :          0.0000000            0.0000000            0.0000000
 Quadrupole ZZ       :        -13.0327820            8.4162677           -4.6165143
 Traceless XX        :          2.5881348           -2.8054226           -0.2172878
 Traceless YY        :          2.5881348           -2.8054226           -0.2172878
 Traceless ZZ        :         -5.1762696            5.6108451            0.4345755

 ------------------------------------------------------------------------------------
  ==> Computing MBIS Charges <==

  Electron Count from Grid (Expected Number): 13.00000 (13.00000)
  Difference: -0.00000

  MBIS Charges: (a.u.)
   Center  Symbol  Z      Pop.       Charge
      1       O    8    8.067576   -0.067576
      2       C    6    4.932423    1.067577

  MBIS Dipoles: [e a0]
   Center  Symbol  Z        X           Y           Z
      1       O    8   -0.000000   -0.000000   -0.204055
      2       C    6   -0.000000    0.000000    0.056820

  MBIS Quadrupoles: [e a0^2]
   Center  Symbol  Z      XX        XY        XZ        YY        YZ        ZZ
      1       O    8   -3.1078    0.0000    0.0000   -3.1078   -0.0000   -3.4056
      2       C    6   -2.1606   -0.0000    0.0000   -2.1606    0.0000   -2.4118

  MBIS Octupoles: [e a0^3]
   Center  Symbol  Z      XXX       XXY       XXZ       XYY       XYZ       XZZ       YYY       YYZ       YZZ       ZZZ
      1       O    8   -0.0000    0.0000   -0.1157   -0.0000    0.0000   -0.0000   -0.0000   -0.1157    0.0000   -0.1014
      2       C    6   -0.0000    0.0000   -0.0245   -0.0000    0.0000   -0.0000    0.0000   -0.0245    0.0000   -0.2533

  MBIS Radial Moments:
   Center  Symbol  Z      [a0^2]      [a0^3]      [a0^4]
      1       O    8    9.621197   16.272449   32.962226
      2       C    6    6.732886   13.152904   30.825579

  MBIS Valence Widths: [a0]
   Center  Symbol  Z     Width
      1       O    8    0.353638
      2       C    6    0.412341

*** tstop() called on Mac.lan at Sun Aug 10 18:36:59 2025
Module time:
	user time   =       4.00 seconds =       0.07 minutes
	system time =       2.26 seconds =       0.04 minutes
	total time  =          1 seconds =       0.02 minutes
Total time:
	user time   =      17.30 seconds =       0.29 minutes
	system time =       4.68 seconds =       0.08 minutes
	total time  =          2 seconds =       0.03 minutes

    Psi4 stopped on: Sunday, 10 August 2025 06:36PM
    Psi4 wall time for execution: 0:00:02.15

*** Psi4 exiting successfully. Buy a developer a beer!
