                               Psi4 1.9.1 release

  ==> Input File <==

--------------------------------------------------------------------------
molecule {
1 2
O           0.000000           0.000000           0.000000
C           0.000000           0.000000           0.686382
}

set {
basis              cc-pvtz
reference          uks
maxiter            500
DAMPING_PERCENTAGE 1
E_CONVERGENCE      1.0E-8
D_CONVERGENCE      1.0E-8
DIIS_MAX_VECS      400
MBIS_MAXITER       8000
guess              read
}

E, wfn = energy('b3lyp', restart_file='last_wfn', return_wfn=True)
properties('b3lyp','MBIS_CHARGES', wfn=wfn)
wfn.to_file('last_wfn')
--------------------------------------------------------------------------

    Molecular point group: c2v
  Charge       = 1
  Multiplicity = 2
  Basis Set: CC-PVTZ
    Blend: CC-PVTZ
  Basis Set: (CC-PVTZ AUX)
    Blend: CC-PVTZ-JKFIT
  @DF-UKS Final Energy:  -111.43467833493239
    Total Energy =                       -111.4346783349323857
 Dipole X            :          0.0000000            0.0000000            0.0000000
 Dipole Y            :          0.0000000            0.0000000            0.0000000
 Dipole Z            :          0.6908366           -0.0014137            0.6894229
 Magnitude           :                                                    0.6894229
    Molecular point group: c2v

    Geometry (in Angstrom), charge = 1, multiplicity = 2:

       Center              X                  Y                   Z               Mass
    ------------   -----------------  -----------------  -----------------  -----------------
         O            0.000000000000     0.000000000000    -0.294217150219    15.994914619570
         C            0.000000000000     0.000000000000     0.392164849781    12.000000000000

  Charge       = 1
  Multiplicity = 2
  Basis Set: CC-PVTZ
    Blend: CC-PVTZ
  Basis Set: (CC-PVTZ AUX)
    Blend: CC-PVTZ-JKFIT

    Orbital Energies [Eh]
    ---------------------

    Alpha Occupied:

       1A1   -19.620632     2A1   -10.751788     3A1    -1.713113
       1B2    -1.133968     1B1    -1.133968     4A1    -0.929481
       5A1    -0.849497

    Alpha Virtual:

       2B2    -0.201722     2B1    -0.201722     6A1    -0.095401
       7A1    -0.028011     3B2    -0.015341     3B1    -0.015341
       8A1     0.248700     9A1     0.263414     1A2     0.263414
       4B2     0.326128     4B1     0.326128    10A1     0.525201
       5B2     0.718257     5B1     0.718257    11A1     0.998797
       6B2     1.213694     6B1     1.213694    12A1     1.287612
       2A2     1.287612    13A1     1.371996    14A1     1.945504
       7B2     1.958380     7B1     1.958380     8B1     2.198601
       8B2     2.198601    15A1     2.348394     3A2     2.378614
      16A1     2.378614     9B1     2.591740     9B2     2.591740
      17A1     2.771067     4A2     2.788951    18A1     2.788951
      10B1     3.670335    10B2     3.670335    11B2     3.838594
      11B1     3.838594    19A1     4.101393    12B1     4.910601
      12B2     4.910601    20A1     5.509034    21A1     5.827005
       5A2     5.827006    22A1     6.172771     6A2     6.172771
      13B1     6.265353    13B2     6.265353    23A1     6.322174
      24A1     7.299861    14B2     7.485077    14B1     7.485077
      25A1     9.861284    26A1    17.552998

    Beta Occupied:

       1A1   -19.619623     2A1   -10.728287     3A1    -1.707775
       1B2    -1.122164     1B1    -1.122164     4A1    -0.918678

    Beta Virtual:

       5A1    -0.616933     2B2    -0.167268     2B1    -0.167268
       6A1    -0.085567     3B2     0.004475     3B1     0.004475
       7A1     0.008999     8A1     0.268849     1A2     0.281464
       9A1     0.281464     4B2     0.337622     4B1     0.337622
      10A1     0.566933     5B2     0.745577     5B1     0.745577
      11A1     1.017698     6B2     1.233135     6B1     1.233135
      12A1     1.290337     2A2     1.290337    13A1     1.422518
      14A1     1.982339     7B2     1.989356     7B1     1.989356
       8B1     2.230728     8B2     2.230728    15A1     2.429834
       3A2     2.450652    16A1     2.450652     9B1     2.688463
       9B2     2.688463     4A2     2.824497    17A1     2.824498
      18A1     2.850393    10B1     3.673691    10B2     3.673691
      11B2     3.881549    11B1     3.881549    19A1     4.120187
      12B1     4.911536    12B2     4.911536    20A1     5.524741
      21A1     5.824062     5A2     5.824063     6A2     6.185016
      22A1     6.185016    13B1     6.273986    13B2     6.273986
      23A1     6.332554    24A1     7.325316    14B2     7.505694
      14B1     7.505694    25A1     9.880445    26A1    17.582031

    Final Occupation by Irrep:
             A1    A2    B1    B2
    DOCC [     4,    0,    1,    1 ]
    SOCC [     1,    0,    0,    0 ]
    NA   [     5,    0,    1,    1 ]
    NB   [     4,    0,    1,    1 ]

  @DF-UKS Final Energy:  -111.43467833460366

   => Energetics <=

    Nuclear Repulsion Energy =             37.0063697943127892
    One-Electron Energy =                -217.1832600573775380
    Two-Electron Energy =                  80.3768753541141763
    DFT Exchange-Correlation Energy =     -11.6346634256530717
    Empirical Dispersion Energy =           0.0000000000000000
    VV10 Nonlocal Energy =                  0.0000000000000000
    Total Energy =                       -111.4346783346036602

  UHF NO Occupations:
  HONO-2 :    1 B1 1.9994531
  HONO-1 :    1 B2 1.9994531
  HONO-0 :    5 A1 1.0000000
  LUNO+0 :    2 B2 0.0005469
  LUNO+1 :    2 B1 0.0005469
  LUNO+2 :    6 A1 0.0000749
  LUNO+3 :    7 A1 0.0000068

Computation Completed

Properties will be evaluated at   0.000000,   0.000000,   0.000000 [a0]

Properties computed using the B3LYP density matrix

 Multipole Moments:

 ------------------------------------------------------------------------------------
     Multipole            Electronic (a.u.)      Nuclear  (a.u.)        Total (a.u.)
 ------------------------------------------------------------------------------------

 L = 1.  Multiply by 2.5417464519 to convert [e a0] to [Debye]
 Dipole X            :          0.0000000            0.0000000            0.0000000
 Dipole Y            :          0.0000000            0.0000000            0.0000000
 Dipole Z            :          0.6908366           -0.0014137            0.6894229
 Magnitude           :                                                    0.6894229

 L = 2.  Multiply by 1.3450342976 to convert [e a0^2] to [Debye ang]
 Quadrupole XX       :         -4.8800625            0.0000000           -4.8800625
 Quadrupole XY       :          0.0000000            0.0000000            0.0000000
 Quadrupole XZ       :          0.0000000            0.0000000            0.0000000
 Quadrupole YY       :         -4.8800625            0.0000000           -4.8800625
 Quadrupole YZ       :          0.0000000            0.0000000            0.0000000
 Quadrupole ZZ       :        -10.5224047            5.7682320           -4.7541727
 Traceless XX        :          1.8807807           -1.9227440           -0.0419633
 Traceless YY        :          1.8807807           -1.9227440           -0.0419633
 Traceless ZZ        :         -3.7615615            3.8454880            0.0839265

 ------------------------------------------------------------------------------------
  ==> Computing MBIS Charges <==

  Electron Count from Grid (Expected Number): 13.00000 (13.00000)
  Difference: -0.00000

  MBIS Charges: (a.u.)
   Center  Symbol  Z      Pop.       Charge
      1       O    8    8.066535   -0.066535
      2       C    6    4.933465    1.066535

  MBIS Dipoles: [e a0]
   Center  Symbol  Z        X           Y           Z
      1       O    8    0.000000   -0.000000   -0.151446
      2       C    6    0.000000    0.000000    0.013484

  MBIS Quadrupoles: [e a0^2]
   Center  Symbol  Z      XX        XY        XZ        YY        YZ        ZZ
      1       O    8   -2.8834   -0.0000   -0.0000   -2.8834    0.0000   -3.2120
      2       C    6   -1.9967   -0.0000   -0.0000   -1.9967    0.0000   -2.2958

  MBIS Octupoles: [e a0^3]
   Center  Symbol  Z      XXX       XXY       XXZ       XYY       XYZ       XZZ       YYY       YYZ       YZZ       ZZZ
      1       O    8    0.0000    0.0000   -0.0521   -0.0000    0.0000    0.0000   -0.0000   -0.0521   -0.0000    0.1103
      2       C    6   -0.0000    0.0000   -0.0891   -0.0000    0.0000    0.0000    0.0000   -0.0891    0.0000   -0.4209

  MBIS Radial Moments:
   Center  Symbol  Z      [a0^2]      [a0^3]      [a0^4]
      1       O    8    8.978690   14.722464   29.003341
      2       C    6    6.289178   12.000198   27.654921

  MBIS Valence Widths: [a0]
   Center  Symbol  Z     Width
      1       O    8    0.340217
      2       C    6    0.396151

*** tstop() called on Mac.lan at Sun Aug 10 18:37:28 2025
Module time:
	user time   =       3.85 seconds =       0.06 minutes
	system time =       2.93 seconds =       0.05 minutes
	total time  =          0 seconds =       0.00 minutes
Total time:
	user time   =      17.87 seconds =       0.30 minutes
	system time =       4.22 seconds =       0.07 minutes
	total time  =          2 seconds =       0.03 minutes

    Psi4 stopped on: Sunday, 10 August 2025 06:37PM
    Psi4 wall time for execution: 0:00:02.15

*** Psi4 exiting successfully. Buy a developer a beer!
