                               Psi4 1.9.1 release

  ==> Input File <==

--------------------------------------------------------------------------
molecule {
1 1
C           0.000000           0.000000           0.000000
H           0.000000           0.000000           1.705072
}

set {
basis              cc-pvtz
reference          uks
maxiter            500
DAMPING_PERCENTAGE 1
E_CONVERGENCE      1.0E-8
D_CONVERGENCE      1.0E-8
DIIS_MAX_VECS      400
MBIS_MAXITER       8000
guess              read
}

E, wfn = energy('b3lyp', restart_file='last_wfn', return_wfn=True)
properties('b3lyp','MBIS_CHARGES', wfn=wfn)
wfn.to_file('last_wfn')
--------------------------------------------------------------------------

    Molecular point group: c2v
  Charge       = 1
  Multiplicity = 1
  Basis Set: CC-PVTZ
    Blend: CC-PVTZ
  Basis Set: (CC-PVTZ AUX)
    Blend: CC-PVTZ-JKFIT
  @DF-UKS Final Energy:   -38.02795438330332
    Total Energy =                        -38.0279543833033173
 Dipole X            :          0.0000000            0.0000000            0.0000000
 Dipole Y            :          0.0000000            0.0000000            0.0000000
 Dipole Z            :         -0.6269546            1.4746074            0.8476528
 Magnitude           :                                                    0.8476528
    Molecular point group: c2v

    Geometry (in Angstrom), charge = 1, multiplicity = 1:

       Center              X                  Y                   Z               Mass
    ------------   -----------------  -----------------  -----------------  -----------------
         C            0.000000000000     0.000000000000    -0.132106192934    12.000000000000
         H            0.000000000000     0.000000000000     1.572965807066     1.007825032230

  Charge       = 1
  Multiplicity = 1
  Basis Set: CC-PVTZ
    Blend: CC-PVTZ
  Basis Set: (CC-PVTZ AUX)
    Blend: CC-PVTZ-JKFIT

    Orbital Energies [Eh]
    ---------------------

    Alpha Occupied:

       1A1   -10.800455     2A1    -0.954164     3A1    -0.662234

    Alpha Virtual:

       1B2    -0.523948     1B1    -0.523948     4A1    -0.379970
       5A1    -0.003805     2B2     0.013659     2B1     0.013659
       6A1     0.043487     7A1     0.147486     3B2     0.224256
       3B1     0.224256     1A2     0.337975     8A1     0.337975
       9A1     0.447668     4B2     0.563764     4B1     0.563764
      10A1     0.882635     5B1     1.529537     5B2     1.529537
      11A1     1.632296    12A1     2.042354     6B2     2.196710
       6B1     2.196710    13A1     2.227147    14A1     2.258396
       2A2     2.258397     7B2     2.268064     7B1     2.268064
      15A1     2.500138     3A2     2.500139     8B2     2.539674
       8B1     2.539674    16A1     2.789008    17A1     2.897307
       4A2     2.897324     9B2     3.160080     9B1     3.160080
      18A1     3.274410    10B2     3.438341    10B1     3.438341
      19A1     3.603181    20A1     4.427975

    Beta Occupied:

       1A1   -10.800455     2A1    -0.954164     3A1    -0.662234

    Beta Virtual:

       1B1    -0.523948     1B2    -0.523948     4A1    -0.379970
       5A1    -0.003805     2B2     0.013659     2B1     0.013659
       6A1     0.043487     7A1     0.147486     3B2     0.224256
       3B1     0.224256     1A2     0.337975     8A1     0.337975
       9A1     0.447668     4B2     0.563764     4B1     0.563764
      10A1     0.882635     5B1     1.529537     5B2     1.529537
      11A1     1.632296    12A1     2.042354     6B2     2.196710
       6B1     2.196710    13A1     2.227147    14A1     2.258396
       2A2     2.258397     7B2     2.268064     7B1     2.268064
      15A1     2.500138     3A2     2.500139     8B2     2.539674
       8B1     2.539674    16A1     2.789008    17A1     2.897307
       4A2     2.897324     9B2     3.160080     9B1     3.160080
      18A1     3.274410    10B2     3.438341    10B1     3.438341
      19A1     3.603181    20A1     4.427975

    Final Occupation by Irrep:
             A1    A2    B1    B2
    DOCC [     3,    0,    0,    0 ]
    SOCC [     0,    0,    0,    0 ]
    NA   [     3,    0,    0,    0 ]
    NB   [     3,    0,    0,    0 ]

  @DF-UKS Final Energy:   -38.02795438329207

   => Energetics <=

    Nuclear Repulsion Energy =              1.8621285576327571
    One-Electron Energy =                 -51.9314448148417327
    Two-Electron Energy =                  16.2089450802354982
    DFT Exchange-Correlation Energy =      -4.1675832063185876
    Empirical Dispersion Energy =           0.0000000000000000
    VV10 Nonlocal Energy =                  0.0000000000000000
    Total Energy =                        -38.0279543832920623

  UHF NO Occupations:
  HONO-2 :    1 A1 2.0000000
  HONO-1 :    2 A1 2.0000000
  HONO-0 :    3 A1 2.0000000
  LUNO+0 :    4 A1 0.0000000
  LUNO+1 :    5 A1 0.0000000
  LUNO+2 :    6 A1 0.0000000
  LUNO+3 :    7 A1 0.0000000

Computation Completed

Properties will be evaluated at   0.000000,   0.000000,   0.000000 [a0]

Properties computed using the B3LYP density matrix

 Multipole Moments:

 ------------------------------------------------------------------------------------
     Multipole            Electronic (a.u.)      Nuclear  (a.u.)        Total (a.u.)
 ------------------------------------------------------------------------------------

 L = 1.  Multiply by 2.5417464519 to convert [e a0] to [Debye]
 Dipole X            :          0.0000000            0.0000000            0.0000000
 Dipole Y            :          0.0000000            0.0000000            0.0000000
 Dipole Z            :         -0.6269546            1.4746074            0.8476528
 Magnitude           :                                                    0.8476528

 L = 2.  Multiply by 1.3450342976 to convert [e a0^2] to [Debye ang]
 Quadrupole XX       :         -3.2355098            0.0000000           -3.2355098
 Quadrupole XY       :          0.0000000            0.0000000            0.0000000
 Quadrupole XZ       :          0.0000000            0.0000000            0.0000000
 Quadrupole YY       :         -3.2355098            0.0000000           -3.2355098
 Quadrupole YZ       :          0.0000000            0.0000000            0.0000000
 Quadrupole ZZ       :        -10.5676495            9.2095395           -1.3581100
 Traceless XX        :          2.4440465           -3.0698465           -0.6257999
 Traceless YY        :          2.4440465           -3.0698465           -0.6257999
 Traceless ZZ        :         -4.8880931            6.1396930            1.2515999

 ------------------------------------------------------------------------------------
  ==> Computing MBIS Charges <==

  Electron Count from Grid (Expected Number):  6.00000 ( 6.00000)
  Difference: -0.00000

  MBIS Charges: (a.u.)
   Center  Symbol  Z      Pop.       Charge
      1       C    6    5.268168    0.731832
      2       H    1    0.731832    0.268168

  MBIS Dipoles: [e a0]
   Center  Symbol  Z        X           Y           Z
      1       C    6    0.000000    0.000000    0.055936
      2       H    1    0.000000   -0.000000    0.177291

  MBIS Quadrupoles: [e a0^2]
   Center  Symbol  Z      XX        XY        XZ        YY        YZ        ZZ
      1       C    6   -2.6752   -0.0000    0.0000   -2.6752   -0.0000   -4.2173
      2       H    1   -0.5603    0.0000    0.0000   -0.5603   -0.0000   -0.5819

  MBIS Octupoles: [e a0^3]
   Center  Symbol  Z      XXX       XXY       XXZ       XYY       XYZ       XZZ       YYY       YYZ       YZZ       ZZZ
      1       C    6    0.0000    0.0000    0.0375    0.0000    0.0000   -0.0000   -0.0000    0.0375   -0.0000    0.0109
      2       H    1    0.0000   -0.0000    0.0940    0.0000    0.0000    0.0000   -0.0000    0.0940   -0.0000    0.3150

  MBIS Radial Moments:
   Center  Symbol  Z      [a0^2]      [a0^3]      [a0^4]
      1       C    6    9.567732   20.974925   54.645859
      2       H    1    1.702495    3.568494    8.847396

  MBIS Valence Widths: [a0]
   Center  Symbol  Z     Width
      1       C    6    0.476505
      2       H    1    0.449676

*** tstop() called on Mac.lan at Sun Aug 10 18:28:00 2025
Module time:
	user time   =       3.88 seconds =       0.06 minutes
	system time =       1.04 seconds =       0.02 minutes
	total time  =          1 seconds =       0.02 minutes
Total time:
	user time   =      12.79 seconds =       0.21 minutes
	system time =       3.38 seconds =       0.06 minutes
	total time  =          2 seconds =       0.03 minutes

    Psi4 stopped on: Sunday, 10 August 2025 06:28PM
    Psi4 wall time for execution: 0:00:01.58

*** Psi4 exiting successfully. Buy a developer a beer!
