                               Psi4 1.9.1 release

  ==> Input File <==

--------------------------------------------------------------------------
molecule {
1 3
N           0.000000           0.000000           0.000000
C           0.000000           0.000000           1.259211
}

set {
basis              cc-pvtz
reference          uks
maxiter            500
DAMPING_PERCENTAGE 1
E_CONVERGENCE      1.0E-8
D_CONVERGENCE      1.0E-8
DIIS_MAX_VECS      400
MBIS_MAXITER       8000
guess              read
}

E, wfn = energy('b3lyp', restart_file='last_wfn', return_wfn=True)
properties('b3lyp','MBIS_CHARGES', wfn=wfn)
wfn.to_file('last_wfn')
--------------------------------------------------------------------------

    Molecular point group: c2v
  Charge       = 1
  Multiplicity = 3
  Basis Set: CC-PVTZ
    Blend: CC-PVTZ
  Basis Set: (CC-PVTZ AUX)
    Blend: CC-PVTZ-JKFIT
  @DF-UKS Final Energy:   -92.22938723499183
    Total Energy =                        -92.2293872349918331
 Dipole X            :          0.0000000            0.0000000            0.0000000
 Dipole Y            :          0.0000000            0.0000000            0.0000000
 Dipole Z            :          0.7061122            0.0016878            0.7078000
 Magnitude           :                                                    0.7078000
    Molecular point group: c2v

    Geometry (in Angstrom), charge = 1, multiplicity = 3:

       Center              X                  Y                   Z               Mass
    ------------   -----------------  -----------------  -----------------  -----------------
         N            0.000000000000     0.000000000000    -0.581105603031    14.003074004430
         C            0.000000000000     0.000000000000     0.678105396969    12.000000000000

  Charge       = 1
  Multiplicity = 3
  Basis Set: CC-PVTZ
    Blend: CC-PVTZ
  Basis Set: (CC-PVTZ AUX)
    Blend: CC-PVTZ-JKFIT

    Orbital Energies [Eh]
    ---------------------

    Alpha Occupied:

       1A1   -14.854555     2A1   -10.770316     3A1    -1.374815
       4A1    -0.908098     1B1    -0.813337     5A1    -0.794172
       1B2    -0.770801

    Alpha Virtual:

       2B1    -0.457326     2B2    -0.424684     6A1    -0.107912
       3B1    -0.004368     7A1     0.002577     3B2     0.005660
       8A1     0.095827     9A1     0.154476     4B1     0.199690
       4B2     0.217620     1A2     0.271466    10A1     0.271955
       5B1     0.428762     5B2     0.450995    11A1     0.560379
       2A2     0.768122    12A1     0.768667    13A1     0.821893
       6B1     1.112654     6B2     1.135221    14A1     1.358935
       7B1     1.570021     7B2     1.590890    15A1     1.763591
       8B1     2.228027     8B2     2.228151    16A1     2.267029
       3A2     2.267242     9B1     2.295123     9B2     2.325572
      17A1     2.404658    10B1     2.473868    18A1     2.499733
       4A2     2.500011    10B2     2.504250    19A1     2.623797
      11B1     2.934247    11B2     2.961670    20A1     3.238350
      12B1     3.481971    12B2     3.482121    21A1     3.845308
       5A2     3.845417     6A2     4.080299    22A1     4.080316
      13B1     4.281168    13B2     4.318970    23A1     4.379436
      14B1     4.872956    24A1     4.876680    14B2     4.904317
      25A1     5.093409    26A1    10.457797

    Beta Occupied:

       1A1   -14.836340     2A1   -10.746822     3A1    -1.306876
       4A1    -0.815639     1B2    -0.749112

    Beta Virtual:

       1B1    -0.634968     5A1    -0.609394     2B2    -0.389478
       2B1    -0.354109     6A1    -0.085238     3B2     0.013469
       3B1     0.019702     7A1     0.038943     8A1     0.138823
       9A1     0.193756     4B2     0.222015     4B1     0.232114
       1A2     0.302399    10A1     0.304681     5B2     0.485272
       5B1     0.490536    11A1     0.583847     2A2     0.799802
      12A1     0.802528    13A1     0.870420     6B2     1.156032
       6B1     1.161226    14A1     1.395097     7B2     1.610435
       7B1     1.618586    15A1     1.828246     8B2     2.271622
       8B1     2.272592     3A2     2.311272    16A1     2.314007
       9B2     2.354430     9B1     2.371309    17A1     2.462757
      10B2     2.553151     4A2     2.567179    10B1     2.568563
      18A1     2.571809    19A1     2.710140    11B2     3.009499
      11B1     3.018089    20A1     3.298740    12B2     3.523827
      12B1     3.525171     5A2     3.893185    21A1     3.898543
       6A2     4.129249    22A1     4.134546    13B2     4.347372
      13B1     4.365591    23A1     4.433820    24A1     4.925189
      14B2     4.932507    14B1     4.940429    25A1     5.124554
      26A1    10.494777

    Final Occupation by Irrep:
             A1    A2    B1    B2
    DOCC [     4,    0,    0,    1 ]
    SOCC [     1,    0,    1,    0 ]
    NA   [     5,    0,    1,    1 ]
    NB   [     4,    0,    0,    1 ]

  @DF-UKS Final Energy:   -92.22938723419306

   => Energetics <=

    Nuclear Repulsion Energy =             17.6502928009205746
    One-Electron Energy =                -154.1739166915456565
    Two-Electron Energy =                  53.7920378170737976
    DFT Exchange-Correlation Energy =      -9.4978011606417745
    Empirical Dispersion Energy =           0.0000000000000000
    VV10 Nonlocal Energy =                  0.0000000000000000
    Total Energy =                        -92.2293872341930552

  UHF NO Occupations:
  HONO-2 :    1 B2 1.9987506
  HONO-1 :    1 B1 1.0000000
  HONO-0 :    5 A1 1.0000000
  LUNO+0 :    2 B2 0.0012494
  LUNO+1 :    6 A1 0.0010207
  LUNO+2 :    7 A1 0.0003013
  LUNO+3 :    8 A1 0.0000005

Computation Completed

Properties will be evaluated at   0.000000,   0.000000,   0.000000 [a0]

Properties computed using the B3LYP density matrix

 Multipole Moments:

 ------------------------------------------------------------------------------------
     Multipole            Electronic (a.u.)      Nuclear  (a.u.)        Total (a.u.)
 ------------------------------------------------------------------------------------

 L = 1.  Multiply by 2.5417464519 to convert [e a0] to [Debye]
 Dipole X            :          0.0000000            0.0000000            0.0000000
 Dipole Y            :          0.0000000            0.0000000            0.0000000
 Dipole Z            :          0.7061122            0.0016878            0.7078000
 Magnitude           :                                                    0.7078000

 L = 2.  Multiply by 1.3450342976 to convert [e a0^2] to [Debye ang]
 Quadrupole XX       :         -5.7573594            0.0000000           -5.7573594
 Quadrupole XY       :          0.0000000            0.0000000            0.0000000
 Quadrupole XZ       :          0.0000000            0.0000000            0.0000000
 Quadrupole YY       :         -6.7757689            0.0000000           -6.7757689
 Quadrupole YZ       :          0.0000000            0.0000000            0.0000000
 Quadrupole ZZ       :        -22.8689057           18.2936639           -4.5752418
 Traceless XX        :          6.0433186           -6.0978880           -0.0545693
 Traceless YY        :          5.0249091           -6.0978880           -1.0729789
 Traceless ZZ        :        -11.0682277           12.1957759            1.1275482

 ------------------------------------------------------------------------------------
  ==> Computing MBIS Charges <==

  Electron Count from Grid (Expected Number): 12.00000 (12.00000)
  Difference:  0.00000

  MBIS Charges: (a.u.)
   Center  Symbol  Z      Pop.       Charge
      1       N    7    6.771377    0.228623
      2       C    6    5.228623    0.771377

  MBIS Dipoles: [e a0]
   Center  Symbol  Z        X           Y           Z
      1       N    7    0.000000    0.000000   -0.170086
      2       C    6   -0.000000    0.000000    0.140476

  MBIS Quadrupoles: [e a0^2]
   Center  Symbol  Z      XX        XY        XZ        YY        YZ        ZZ
      1       N    7   -3.1386    0.0000   -0.0000   -3.6947    0.0000   -3.7640
      2       C    6   -2.6188    0.0000   -0.0000   -3.0811    0.0000   -3.0872

  MBIS Octupoles: [e a0^3]
   Center  Symbol  Z      XXX       XXY       XXZ       XYY       XYZ       XZZ       YYY       YYZ       YZZ       ZZZ
      1       N    7    0.0000   -0.0000   -0.1183    0.0000    0.0000   -0.0000   -0.0000   -0.2733    0.0000   -0.4776
      2       C    6   -0.0000   -0.0000    0.0615   -0.0000   -0.0000   -0.0000    0.0000    0.2191    0.0000    0.2970

  MBIS Radial Moments:
   Center  Symbol  Z      [a0^2]      [a0^3]      [a0^4]
      1       N    7   10.597235   20.875873   49.024951
      2       C    6    8.787059   18.625943   47.059859

  MBIS Valence Widths: [a0]
   Center  Symbol  Z     Width
      1       N    7    0.418552
      2       C    6    0.456501

*** tstop() called on Mac.lan at Sun Aug 10 18:32:20 2025
Module time:
	user time   =      82.24 seconds =       1.37 minutes
	system time =       4.85 seconds =       0.08 minutes
	total time  =          9 seconds =       0.15 minutes
Total time:
	user time   =     182.17 seconds =       3.04 minutes
	system time =      11.06 seconds =       0.18 minutes
	total time  =         21 seconds =       0.35 minutes

    Psi4 stopped on: Sunday, 10 August 2025 06:32PM
    Psi4 wall time for execution: 0:00:20.59

*** Psi4 exiting successfully. Buy a developer a beer!
