                               Psi4 1.9.1 release

  ==> Input File <==

--------------------------------------------------------------------------
molecule {
1 2
O           0.000000           0.000000           0.000000
C           0.000000           0.000000           1.257235
}

set {
basis              cc-pvtz
reference          uks
maxiter            500
DAMPING_PERCENTAGE 1
E_CONVERGENCE      1.0E-8
D_CONVERGENCE      1.0E-8
DIIS_MAX_VECS      400
MBIS_MAXITER       8000
guess              read
}

E, wfn = energy('b3lyp', restart_file='last_wfn', return_wfn=True)
properties('b3lyp','MBIS_CHARGES', wfn=wfn)
wfn.to_file('last_wfn')
--------------------------------------------------------------------------

    Molecular point group: c2v
  Charge       = 1
  Multiplicity = 2
  Basis Set: CC-PVTZ
    Blend: CC-PVTZ
  Basis Set: (CC-PVTZ AUX)
    Blend: CC-PVTZ-JKFIT
  @DF-UKS Final Energy:  -112.80016758391541
    Total Energy =                       -112.8001675839154103
 Dipole X            :          0.0000000            0.0000000            0.0000000
 Dipole Y            :          0.0000000            0.0000000            0.0000000
 Dipole Z            :          1.1448710           -0.0025895            1.1422815
 Magnitude           :                                                    1.1422815
    Molecular point group: c2v

    Geometry (in Angstrom), charge = 1, multiplicity = 2:

       Center              X                  Y                   Z               Mass
    ------------   -----------------  -----------------  -----------------  -----------------
         O            0.000000000000     0.000000000000    -0.538912877750    15.994914619570
         C            0.000000000000     0.000000000000     0.718322122250    12.000000000000

  Charge       = 1
  Multiplicity = 2
  Basis Set: CC-PVTZ
    Blend: CC-PVTZ
  Basis Set: (CC-PVTZ AUX)
    Blend: CC-PVTZ-JKFIT

    Orbital Energies [Eh]
    ---------------------

    Alpha Occupied:

       1A1   -19.666697     2A1   -10.829915     3A1    -1.495452
       4A1    -0.987608     5A1    -0.854808     1B1    -0.816882
       1B2    -0.816882

    Alpha Virtual:

       2B1    -0.480953     2B2    -0.480953     6A1    -0.149032
       7A1    -0.016715     3B2    -0.003657     3B1    -0.003657
       8A1     0.058760     9A1     0.248091    10A1     0.286111
       1A2     0.286111     4B2     0.324806     4B1     0.324806
       5B1     0.446795     5B2     0.446795    11A1     0.737306
      12A1     0.870180    13A1     1.135143     2A2     1.135143
       6B2     1.395399     6B1     1.395399    14A1     1.593388
       7B1     1.618760     7B2     1.618760    15A1     1.837827
       8B1     2.224881     8B2     2.224881    16A1     2.339203
       3A2     2.339203     4A2     2.464242    17A1     2.464242
       9B1     2.468987     9B2     2.468987    18A1     2.674053
      10B2     2.741267    10B1     2.741267    19A1     2.778495
      11B1     3.530211    11B2     3.530211    20A1     3.628918
      12B2     4.709219    12B1     4.709219    21A1     4.944365
       5A2     4.944366    22A1     5.329518    13B2     5.488955
      13B1     5.488955    23A1     5.822426     6A2     5.822447
      24A1     6.016404    14B1     6.301094    14B2     6.301094
      25A1     6.608497    26A1     9.982420

    Beta Occupied:

       1A1   -19.666224     2A1   -10.806738     3A1    -1.485629
       4A1    -0.933458     1B1    -0.816286     1B2    -0.816286

    Beta Virtual:

       5A1    -0.657651     2B1    -0.442064     2B2    -0.442064
       6A1    -0.123521     3B2     0.006908     3B1     0.006908
       7A1     0.016730     8A1     0.100356     9A1     0.258172
       1A2     0.306484    10A1     0.306484     4B2     0.322509
       4B1     0.322509     5B1     0.481672     5B2     0.481672
      11A1     0.773316    12A1     0.877209    13A1     1.132172
       2A2     1.132172     6B2     1.419344     6B1     1.419344
       7B1     1.635718     7B2     1.635718    14A1     1.642666
      15A1     1.884361     8B1     2.259253     8B2     2.259253
       3A2     2.367840    16A1     2.367840     4A2     2.525953
      17A1     2.525953     9B1     2.540617     9B2     2.540617
      18A1     2.765617    10B2     2.786970    10B1     2.786970
      19A1     2.825541    11B1     3.535820    11B2     3.535820
      20A1     3.661585    12B2     4.695926    12B1     4.695926
      21A1     4.946684     5A2     4.946685    22A1     5.348342
      13B2     5.505205    13B1     5.505205    23A1     5.806039
       6A2     5.806060    24A1     6.040706    14B1     6.314146
      14B2     6.314146    25A1     6.626813    26A1     9.997239

    Final Occupation by Irrep:
             A1    A2    B1    B2
    DOCC [     4,    0,    1,    1 ]
    SOCC [     1,    0,    0,    0 ]
    NA   [     5,    0,    1,    1 ]
    NB   [     4,    0,    1,    1 ]

  @DF-UKS Final Energy:  -112.80016757718894

   => Energetics <=

    Nuclear Repulsion Energy =             20.2034672214502464
    One-Electron Energy =                -188.2181722634018115
    Two-Electron Energy =                  66.0465426268858948
    DFT Exchange-Correlation Energy =     -10.8320051621232700
    Empirical Dispersion Energy =           0.0000000000000000
    VV10 Nonlocal Energy =                  0.0000000000000000
    Total Energy =                       -112.8001675771889438

  UHF NO Occupations:
  HONO-2 :    1 B1 1.9942312
  HONO-1 :    1 B2 1.9942312
  HONO-0 :    5 A1 1.0000000
  LUNO+0 :    2 B2 0.0057688
  LUNO+1 :    2 B1 0.0057688
  LUNO+2 :    6 A1 0.0008914
  LUNO+3 :    7 A1 0.0000415

Computation Completed

Properties will be evaluated at   0.000000,   0.000000,   0.000000 [a0]

Properties computed using the B3LYP density matrix

 Multipole Moments:

 ------------------------------------------------------------------------------------
     Multipole            Electronic (a.u.)      Nuclear  (a.u.)        Total (a.u.)
 ------------------------------------------------------------------------------------

 L = 1.  Multiply by 2.5417464519 to convert [e a0] to [Debye]
 Dipole X            :          0.0000000            0.0000000            0.0000000
 Dipole Y            :          0.0000000            0.0000000            0.0000000
 Dipole Z            :          1.1448709           -0.0025895            1.1422815
 Magnitude           :                                                    1.1422815

 L = 2.  Multiply by 1.3450342976 to convert [e a0^2] to [Debye ang]
 Quadrupole XX       :         -6.1879821            0.0000000           -6.1879821
 Quadrupole XY       :          0.0000000            0.0000000            0.0000000
 Quadrupole XZ       :          0.0000000            0.0000000            0.0000000
 Quadrupole YY       :         -6.1879821            0.0000000           -6.1879821
 Quadrupole YZ       :          0.0000000            0.0000000            0.0000000
 Quadrupole ZZ       :        -22.9181341           19.3528029           -3.5653312
 Traceless XX        :          5.5767173           -6.4509343           -0.8742170
 Traceless YY        :          5.5767173           -6.4509343           -0.8742170
 Traceless ZZ        :        -11.1534346           12.9018686            1.7484339

 ------------------------------------------------------------------------------------
  ==> Computing MBIS Charges <==

  Electron Count from Grid (Expected Number): 13.00000 (13.00000)
  Difference:  0.00000

  MBIS Charges: (a.u.)
   Center  Symbol  Z      Pop.       Charge
      1       O    8    7.976848    0.023152
      2       C    6    5.023152    0.976848

  MBIS Dipoles: [e a0]
   Center  Symbol  Z        X           Y           Z
      1       O    8   -0.000000   -0.000000   -0.313292
      2       C    6    0.000000    0.000000    0.153148

  MBIS Quadrupoles: [e a0^2]
   Center  Symbol  Z      XX        XY        XZ        YY        YZ        ZZ
      1       O    8   -3.5259   -0.0000    0.0000   -3.5259   -0.0000   -3.6163
      2       C    6   -2.6620   -0.0000    0.0000   -2.6620    0.0000   -2.8269

  MBIS Octupoles: [e a0^3]
   Center  Symbol  Z      XXX       XXY       XXZ       XYY       XYZ       XZZ       YYY       YYZ       YZZ       ZZZ
      1       O    8    0.0000   -0.0000   -0.2918   -0.0000   -0.0000   -0.0000   -0.0000   -0.2918    0.0000   -0.7572
      2       C    6    0.0000   -0.0000    0.2281    0.0000    0.0000    0.0000   -0.0000    0.2281    0.0000    0.3682

  MBIS Radial Moments:
   Center  Symbol  Z      [a0^2]      [a0^3]      [a0^4]
      1       O    8   10.668154   19.208167   41.293935
      2       C    6    8.151004   17.117128   42.773514

  MBIS Valence Widths: [a0]
   Center  Symbol  Z     Width
      1       O    8    0.376854
      2       C    6    0.453409

*** tstop() called on Mac.lan at Sun Aug 10 18:37:59 2025
Module time:
	user time   =       3.99 seconds =       0.07 minutes
	system time =       2.39 seconds =       0.04 minutes
	total time  =          0 seconds =       0.00 minutes
Total time:
	user time   =      73.02 seconds =       1.22 minutes
	system time =       4.44 seconds =       0.07 minutes
	total time  =          8 seconds =       0.13 minutes

    Psi4 stopped on: Sunday, 10 August 2025 06:37PM
    Psi4 wall time for execution: 0:00:08.43

*** Psi4 exiting successfully. Buy a developer a beer!
