                               Psi4 1.9.1 release

  ==> Input File <==

--------------------------------------------------------------------------
molecule {
1 1
O           0.000000           0.000000           0.000000
N           0.000000           0.000000           0.906222
}

set {
basis              cc-pvtz
reference          uks
maxiter            500
DAMPING_PERCENTAGE 1
E_CONVERGENCE      1.0E-8
D_CONVERGENCE      1.0E-8
DIIS_MAX_VECS      400
MBIS_MAXITER       8000
guess              read
}

E, wfn = energy('b3lyp', restart_file='last_wfn', return_wfn=True)
properties('b3lyp','MBIS_CHARGES', wfn=wfn)
wfn.to_file('last_wfn')
--------------------------------------------------------------------------

    Molecular point group: c2v
  Charge       = 1
  Multiplicity = 1
  Basis Set: CC-PVTZ
    Blend: CC-PVTZ
  Basis Set: (CC-PVTZ AUX)
    Blend: CC-PVTZ-JKFIT
  @DF-UKS Final Energy:  -129.47988442019081
    Total Energy =                       -129.4798844201908139
 Dipole X            :          0.0000000            0.0000000            0.0000000
 Dipole Y            :          0.0000000            0.0000000            0.0000000
 Dipole Z            :          0.0257594           -0.0034361            0.0223233
 Magnitude           :                                                    0.0223233
    Molecular point group: c2v

    Geometry (in Angstrom), charge = 1, multiplicity = 1:

       Center              X                  Y                   Z               Mass
    ------------   -----------------  -----------------  -----------------  -----------------
         O            0.000000000000     0.000000000000    -0.423024819747    15.994914619570
         N            0.000000000000     0.000000000000     0.483197180253    14.003074004430

  Charge       = 1
  Multiplicity = 1
  Basis Set: CC-PVTZ
    Blend: CC-PVTZ
  Basis Set: (CC-PVTZ AUX)
    Blend: CC-PVTZ-JKFIT

    Orbital Energies [Eh]
    ---------------------

    Alpha Occupied:

       1A1   -19.759320     2A1   -14.914187     3A1    -1.927988
       1B2    -1.084540     1B1    -1.084540     4A1    -1.083470
       5A1    -0.923866

    Alpha Virtual:

       2B2    -0.404506     2B1    -0.404506     6A1    -0.060319
       3B2     0.057228     3B1     0.057228     7A1     0.115938
       8A1     0.196474     4B1     0.292740     4B2     0.292740
       9A1     0.507826     1A2     0.507826    10A1     0.592008
      11A1     0.846444     5B1     0.884218     5B2     0.884218
      12A1     1.215108     2A2     1.215108    13A1     1.542271
       6B1     1.701356     6B2     1.701356    14A1     2.034088
       7B1     2.325481     7B2     2.325481    15A1     2.763842
      16A1     3.250924     8B2     3.298397     8B1     3.298397
       9B1     3.358144     9B2     3.358144    17A1     3.433074
       3A2     3.433075    10B1     3.717449    10B2     3.717449
      18A1     3.934789     4A2     3.934790    19A1     4.202171
      11B1     4.415499    11B2     4.415499    12B1     4.695783
      12B2     4.695783    20A1     5.202571     5A2     5.661715
      21A1     5.661718     6A2     5.731879    22A1     5.731880
      13B1     6.123548    13B2     6.123548    23A1     6.351480
      24A1     6.905438    14B1     7.508367    14B2     7.508367
      25A1     8.392054    26A1    20.312431

    Beta Occupied:

       1A1   -19.759320     2A1   -14.914187     3A1    -1.927988
       1B2    -1.084540     1B1    -1.084540     4A1    -1.083470
       5A1    -0.923866

    Beta Virtual:

       2B2    -0.404506     2B1    -0.404506     6A1    -0.060319
       3B2     0.057228     3B1     0.057228     7A1     0.115938
       8A1     0.196474     4B1     0.292740     4B2     0.292740
       9A1     0.507826     1A2     0.507826    10A1     0.592008
      11A1     0.846444     5B1     0.884218     5B2     0.884218
      12A1     1.215108     2A2     1.215108    13A1     1.542271
       6B1     1.701356     6B2     1.701356    14A1     2.034088
       7B1     2.325481     7B2     2.325481    15A1     2.763842
      16A1     3.250924     8B2     3.298397     8B1     3.298397
       9B1     3.358144     9B2     3.358144    17A1     3.433074
       3A2     3.433075    10B1     3.717449    10B2     3.717449
      18A1     3.934789     4A2     3.934790    19A1     4.202171
      11B1     4.415499    11B2     4.415499    12B1     4.695783
      12B2     4.695783    20A1     5.202571     5A2     5.661715
      21A1     5.661718     6A2     5.731879    22A1     5.731880
      13B1     6.123548    13B2     6.123548    23A1     6.351480
      24A1     6.905438    14B1     7.508367    14B2     7.508367
      25A1     8.392054    26A1    20.312431

    Final Occupation by Irrep:
             A1    A2    B1    B2
    DOCC [     5,    0,    1,    1 ]
    SOCC [     0,    0,    0,    0 ]
    NA   [     5,    0,    1,    1 ]
    NB   [     5,    0,    1,    1 ]

  @DF-UKS Final Energy:  -129.47988441583797

   => Energetics <=

    Nuclear Repulsion Energy =             32.7005124544758345
    One-Electron Energy =                -233.9474213931143254
    Two-Electron Energy =                  84.0974730914294497
    DFT Exchange-Correlation Energy =     -12.3304485686289418
    Empirical Dispersion Energy =           0.0000000000000000
    VV10 Nonlocal Energy =                  0.0000000000000000
    Total Energy =                       -129.4798844158379723

  UHF NO Occupations:
  HONO-2 :    3 A1 2.0000000
  HONO-1 :    4 A1 2.0000000
  HONO-0 :    5 A1 2.0000000
  LUNO+0 :    6 A1 0.0000000
  LUNO+1 :    7 A1 0.0000000
  LUNO+2 :    8 A1 0.0000000
  LUNO+3 :    9 A1 0.0000000

Computation Completed

Properties will be evaluated at   0.000000,   0.000000,   0.000000 [a0]

Properties computed using the B3LYP density matrix

 Multipole Moments:

 ------------------------------------------------------------------------------------
     Multipole            Electronic (a.u.)      Nuclear  (a.u.)        Total (a.u.)
 ------------------------------------------------------------------------------------

 L = 1.  Multiply by 2.5417464519 to convert [e a0] to [Debye]
 Dipole X            :          0.0000000            0.0000000            0.0000000
 Dipole Y            :          0.0000000            0.0000000            0.0000000
 Dipole Z            :          0.0257594           -0.0034361            0.0223233
 Magnitude           :                                                    0.0223233

 L = 2.  Multiply by 1.3450342976 to convert [e a0^2] to [Debye ang]
 Quadrupole XX       :         -5.5132048            0.0000000           -5.5132048
 Quadrupole XY       :          0.0000000            0.0000000            0.0000000
 Quadrupole XZ       :          0.0000000            0.0000000            0.0000000
 Quadrupole YY       :         -5.5132048            0.0000000           -5.5132048
 Quadrupole YZ       :          0.0000000            0.0000000            0.0000000
 Quadrupole ZZ       :        -16.5688567           10.9487297           -5.6201270
 Traceless XX        :          3.6852173           -3.6495766            0.0356407
 Traceless YY        :          3.6852173           -3.6495766            0.0356407
 Traceless ZZ        :         -7.3704346            7.2991532           -0.0712814

 ------------------------------------------------------------------------------------
  ==> Computing MBIS Charges <==

  Electron Count from Grid (Expected Number): 14.00000 (14.00000)
  Difference: -0.00000

  MBIS Charges: (a.u.)
   Center  Symbol  Z      Pop.       Charge
      1       O    8    7.567693    0.432307
      2       N    7    6.432306    0.567694

  MBIS Dipoles: [e a0]
   Center  Symbol  Z        X           Y           Z
      1       O    8    0.000000   -0.000000   -0.046969
      2       N    7    0.000000   -0.000000   -0.103488

  MBIS Quadrupoles: [e a0^2]
   Center  Symbol  Z      XX        XY        XZ        YY        YZ        ZZ
      1       O    8   -2.7464   -0.0000   -0.0000   -2.7464   -0.0000   -3.0218
      2       N    7   -2.7668   -0.0000   -0.0000   -2.7668   -0.0000   -3.2340

  MBIS Octupoles: [e a0^3]
   Center  Symbol  Z      XXX       XXY       XXZ       XYY       XYZ       XZZ       YYY       YYZ       YZZ       ZZZ
      1       O    8    0.0000   -0.0000   -0.0081    0.0000   -0.0000    0.0000   -0.0000   -0.0081   -0.0000   -0.0175
      2       N    7    0.0000    0.0000   -0.0756    0.0000   -0.0000    0.0000   -0.0000   -0.0756   -0.0000   -0.2673

  MBIS Radial Moments:
   Center  Symbol  Z      [a0^2]      [a0^3]      [a0^4]
      1       O    8    8.514546   14.065743   27.850598
      2       N    7    8.767681   16.262261   36.034806

  MBIS Valence Widths: [a0]
   Center  Symbol  Z     Width
      1       O    8    0.346440
      2       N    7    0.391632

*** tstop() called on Mac.lan at Sun Aug 10 18:40:39 2025
Module time:
	user time   =       5.95 seconds =       0.10 minutes
	system time =       2.38 seconds =       0.04 minutes
	total time  =          1 seconds =       0.02 minutes
Total time:
	user time   =      17.65 seconds =       0.29 minutes
	system time =       4.29 seconds =       0.07 minutes
	total time  =          3 seconds =       0.05 minutes

    Psi4 stopped on: Sunday, 10 August 2025 06:40PM
    Psi4 wall time for execution: 0:00:02.15

*** Psi4 exiting successfully. Buy a developer a beer!
