                               Psi4 1.9.1 release

  ==> Input File <==

--------------------------------------------------------------------------
molecule {
1 1
O           0.000000           0.000000           0.000000
N           0.000000           0.000000           1.333441
}

set {
basis              cc-pvtz
reference          uks
maxiter            500
DAMPING_PERCENTAGE 1
E_CONVERGENCE      1.0E-8
D_CONVERGENCE      1.0E-8
DIIS_MAX_VECS      400
MBIS_MAXITER       8000
guess              read
}

E, wfn = energy('b3lyp', restart_file='last_wfn', return_wfn=True)
properties('b3lyp','MBIS_CHARGES', wfn=wfn)
wfn.to_file('last_wfn')
--------------------------------------------------------------------------

    Molecular point group: c2v
  Charge       = 1
  Multiplicity = 1
  Basis Set: CC-PVTZ
    Blend: CC-PVTZ
  Basis Set: (CC-PVTZ AUX)
    Blend: CC-PVTZ-JKFIT
  @DF-UKS Final Energy:  -129.46324310374808
    Total Energy =                       -129.4632431037480842
 Dipole X            :          0.0000000            0.0000000            0.0000000
 Dipole Y            :          0.0000000            0.0000000            0.0000000
 Dipole Z            :          0.3973179           -0.0050559            0.3922619
 Magnitude           :                                                    0.3922619
    Molecular point group: c2v

    Geometry (in Angstrom), charge = 1, multiplicity = 1:

       Center              X                  Y                   Z               Mass
    ------------   -----------------  -----------------  -----------------  -----------------
         O            0.000000000000     0.000000000000    -0.622450832874    15.994914619570
         N            0.000000000000     0.000000000000     0.710990167126    14.003074004430

  Charge       = 1
  Multiplicity = 1
  Basis Set: CC-PVTZ
    Blend: CC-PVTZ
  Basis Set: (CC-PVTZ AUX)
    Blend: CC-PVTZ-JKFIT

    Orbital Energies [Eh]
    ---------------------

    Alpha Occupied:

       1A1   -19.762282     2A1   -15.010773     3A1    -1.563794
       4A1    -1.135300     5A1    -0.891727     1B2    -0.870429
       1B1    -0.870429

    Alpha Virtual:

       2B1    -0.584583     2B2    -0.584583     6A1    -0.272448
       7A1     0.074638     3B2     0.106407     3B1     0.106407
       8A1     0.147480     9A1     0.237078     4B1     0.282828
       4B2     0.282828     1A2     0.570294    10A1     0.570294
       5B1     0.654369     5B2     0.654369    11A1     0.813095
      12A1     1.101713     2A2     1.101713    13A1     1.167909
       6B1     1.519582     6B2     1.519582    14A1     1.697554
       7B1     2.358899     7B2     2.358899    15A1     2.603591
       8B2     3.030558     8B1     3.030558     3A2     3.332488
      16A1     3.332489     9B2     3.380456     9B1     3.380456
      17A1     3.435558    10B2     3.564759    10B1     3.564759
      18A1     3.843195    19A1     3.900978     4A2     3.900981
      20A1     4.139957    11B1     4.175862    11B2     4.175862
      12B1     4.631624    12B2     4.631624    21A1     4.848717
       5A2     4.848718    22A1     5.113744    13B2     5.483295
      13B1     5.483295    23A1     5.703495     6A2     5.703500
      24A1     6.004446    14B2     6.207287    14B1     6.207287
      25A1     6.913006    26A1     9.346448

    Beta Occupied:

       1A1   -19.762282     2A1   -15.010773     3A1    -1.563794
       4A1    -1.135300     5A1    -0.891727     1B2    -0.870429
       1B1    -0.870429

    Beta Virtual:

       2B1    -0.584583     2B2    -0.584583     6A1    -0.272448
       7A1     0.074638     3B2     0.106407     3B1     0.106407
       8A1     0.147480     9A1     0.237078     4B1     0.282828
       4B2     0.282828     1A2     0.570294    10A1     0.570294
       5B1     0.654369     5B2     0.654369    11A1     0.813095
      12A1     1.101713     2A2     1.101713    13A1     1.167909
       6B1     1.519582     6B2     1.519582    14A1     1.697554
       7B1     2.358899     7B2     2.358899    15A1     2.603591
       8B2     3.030558     8B1     3.030558     3A2     3.332488
      16A1     3.332489     9B2     3.380456     9B1     3.380456
      17A1     3.435558    10B2     3.564759    10B1     3.564759
      18A1     3.843195    19A1     3.900978     4A2     3.900981
      20A1     4.139957    11B1     4.175862    11B2     4.175862
      12B1     4.631624    12B2     4.631624    21A1     4.848717
       5A2     4.848718    22A1     5.113744    13B2     5.483295
      13B1     5.483295    23A1     5.703495     6A2     5.703500
      24A1     6.004446    14B2     6.207287    14B1     6.207287
      25A1     6.913006    26A1     9.346448

    Final Occupation by Irrep:
             A1    A2    B1    B2
    DOCC [     5,    0,    1,    1 ]
    SOCC [     0,    0,    0,    0 ]
    NA   [     5,    0,    1,    1 ]
    NB   [     5,    0,    1,    1 ]

  @DF-UKS Final Energy:  -129.46324309878190

   => Energetics <=

    Nuclear Repulsion Energy =             22.2236482885406978
    One-Electron Energy =                -214.5903069753273371
    Two-Electron Energy =                  74.8173416405262657
    DFT Exchange-Correlation Energy =     -11.9139260525215072
    Empirical Dispersion Energy =           0.0000000000000000
    VV10 Nonlocal Energy =                  0.0000000000000000
    Total Energy =                       -129.4632430987819021

  UHF NO Occupations:
  HONO-2 :    4 A1 2.0000000
  HONO-1 :    1 B1 2.0000000
  HONO-0 :    5 A1 2.0000000
  LUNO+0 :    6 A1 0.0000000
  LUNO+1 :    7 A1 0.0000000
  LUNO+2 :    8 A1 0.0000000
  LUNO+3 :    9 A1 0.0000000

Computation Completed

Properties will be evaluated at   0.000000,   0.000000,   0.000000 [a0]

Properties computed using the B3LYP density matrix

 Multipole Moments:

 ------------------------------------------------------------------------------------
     Multipole            Electronic (a.u.)      Nuclear  (a.u.)        Total (a.u.)
 ------------------------------------------------------------------------------------

 L = 1.  Multiply by 2.5417464519 to convert [e a0] to [Debye]
 Dipole X            :          0.0000000            0.0000000            0.0000000
 Dipole Y            :          0.0000000            0.0000000            0.0000000
 Dipole Z            :          0.3973179           -0.0050559            0.3922620
 Magnitude           :                                                    0.3922620

 L = 2.  Multiply by 1.3450342976 to convert [e a0^2] to [Debye ang]
 Quadrupole XX       :         -6.2072168            0.0000000           -6.2072168
 Quadrupole XY       :          0.0000000            0.0000000            0.0000000
 Quadrupole XZ       :          0.0000000            0.0000000            0.0000000
 Quadrupole YY       :         -6.2072168            0.0000000           -6.2072168
 Quadrupole YZ       :          0.0000000            0.0000000            0.0000000
 Quadrupole ZZ       :        -28.3127060           23.7051192           -4.6075869
 Traceless XX        :          7.3684964           -7.9017064           -0.5332100
 Traceless YY        :          7.3684964           -7.9017064           -0.5332100
 Traceless ZZ        :        -14.7369929           15.8034128            1.0664199

 ------------------------------------------------------------------------------------
  ==> Computing MBIS Charges <==

  Electron Count from Grid (Expected Number): 14.00000 (14.00000)
  Difference: -0.00000

  MBIS Charges: (a.u.)
   Center  Symbol  Z      Pop.       Charge
      1       O    8    7.686814    0.313186
      2       N    7    6.313186    0.686814

  MBIS Dipoles: [e a0]
   Center  Symbol  Z        X           Y           Z
      1       O    8   -0.000000   -0.000000   -0.160929
      2       N    7    0.000000   -0.000000   -0.001209

  MBIS Quadrupoles: [e a0^2]
   Center  Symbol  Z      XX        XY        XZ        YY        YZ        ZZ
      1       O    8   -3.2283    0.0000   -0.0000   -3.2283   -0.0000   -3.3526
      2       N    7   -2.9789    0.0000    0.0000   -2.9789    0.0000   -3.3034

  MBIS Octupoles: [e a0^3]
   Center  Symbol  Z      XXX       XXY       XXZ       XYY       XYZ       XZZ       YYY       YYZ       YZZ       ZZZ
      1       O    8   -0.0000   -0.0000   -0.1548   -0.0000    0.0000   -0.0000   -0.0000   -0.1548   -0.0000   -0.4579
      2       N    7   -0.0000   -0.0000    0.1281   -0.0000   -0.0000    0.0000   -0.0000    0.1281    0.0000    0.2662

  MBIS Radial Moments:
   Center  Symbol  Z      [a0^2]      [a0^3]      [a0^4]
      1       O    8    9.809276   17.344654   36.714019
      2       N    7    9.261242   17.855361   41.060794

  MBIS Valence Widths: [a0]
   Center  Symbol  Z     Width
      1       O    8    0.369637
      2       N    7    0.410036

*** tstop() called on Mac.lan at Sun Aug 10 18:42:29 2025
Module time:
	user time   =       3.88 seconds =       0.06 minutes
	system time =       1.90 seconds =       0.03 minutes
	total time  =          1 seconds =       0.02 minutes
Total time:
	user time   =      21.20 seconds =       0.35 minutes
	system time =       4.14 seconds =       0.07 minutes
	total time  =          3 seconds =       0.05 minutes

    Psi4 stopped on: Sunday, 10 August 2025 06:42PM
    Psi4 wall time for execution: 0:00:02.54

*** Psi4 exiting successfully. Buy a developer a beer!
