                               Psi4 1.9.1 release

  ==> Input File <==

--------------------------------------------------------------------------
molecule {
1 1
C           0.000000           0.000000           0.000000
H           0.000000           0.000000           1.141355
}

set {
basis              cc-pvtz
reference          uks
maxiter            500
DAMPING_PERCENTAGE 1
E_CONVERGENCE      1.0E-8
D_CONVERGENCE      1.0E-8
DIIS_MAX_VECS      400
MBIS_MAXITER       8000
guess              read
}

E, wfn = energy('b3lyp', restart_file='last_wfn', return_wfn=True)
properties('b3lyp','MBIS_CHARGES', wfn=wfn)
wfn.to_file('last_wfn')
--------------------------------------------------------------------------

    Molecular point group: c2v
  Charge       = 1
  Multiplicity = 1
  Basis Set: CC-PVTZ
    Blend: CC-PVTZ
  Basis Set: (CC-PVTZ AUX)
    Blend: CC-PVTZ-JKFIT
  @DF-UKS Final Energy:   -38.09224739334192
    Total Energy =                        -38.0922473933419212
 Dipole X            :          0.0000000            0.0000000            0.0000000
 Dipole Y            :          0.0000000            0.0000000            0.0000000
 Dipole Z            :         -0.2721781            0.9870848            0.7149066
 Magnitude           :                                                    0.7149066
    Molecular point group: c2v

    Geometry (in Angstrom), charge = 1, multiplicity = 1:

       Center              X                  Y                   Z               Mass
    ------------   -----------------  -----------------  -----------------  -----------------
         C            0.000000000000     0.000000000000    -0.088430320735    12.000000000000
         H            0.000000000000     0.000000000000     1.052924679265     1.007825032230

  Charge       = 1
  Multiplicity = 1
  Basis Set: CC-PVTZ
    Blend: CC-PVTZ
  Basis Set: (CC-PVTZ AUX)
    Blend: CC-PVTZ-JKFIT

    Orbital Energies [Eh]
    ---------------------

    Alpha Occupied:

       1A1   -10.802059     2A1    -1.050437     3A1    -0.722052

    Alpha Virtual:

       1B2    -0.545702     1B1    -0.545702     4A1    -0.225981
       5A1    -0.009409     2B2     0.008037     2B1     0.008037
       6A1     0.030456     7A1     0.164154     3B2     0.225747
       3B1     0.225747     8A1     0.318152     1A2     0.318152
       9A1     0.623995     4B1     0.702877     4B2     0.702877
      10A1     1.020450     5B2     1.535105     5B1     1.535105
      11A1     1.692156    12A1     1.804862    13A1     2.128046
       2A2     2.128047     6B2     2.201211     6B1     2.201211
       7B1     2.248439     7B2     2.248439    14A1     2.482002
      15A1     2.492210     3A2     2.492210     8B1     2.649304
       8B2     2.649304    16A1     2.827302    17A1     3.166554
       4A2     3.166554     9B2     3.426019     9B1     3.426019
      18A1     3.970213    10B1     4.243579    10B2     4.243579
      19A1     4.315724    20A1     7.441614

    Beta Occupied:

       1A1   -10.802059     2A1    -1.050437     3A1    -0.722052

    Beta Virtual:

       1B2    -0.545702     1B1    -0.545702     4A1    -0.225981
       5A1    -0.009409     2B2     0.008037     2B1     0.008037
       6A1     0.030456     7A1     0.164154     3B2     0.225747
       3B1     0.225747     8A1     0.318152     1A2     0.318152
       9A1     0.623995     4B1     0.702877     4B2     0.702877
      10A1     1.020450     5B2     1.535105     5B1     1.535105
      11A1     1.692156    12A1     1.804862    13A1     2.128046
       2A2     2.128047     6B2     2.201211     6B1     2.201211
       7B1     2.248439     7B2     2.248439    14A1     2.482002
      15A1     2.492210     3A2     2.492210     8B1     2.649304
       8B2     2.649304    16A1     2.827302    17A1     3.166554
       4A2     3.166554     9B2     3.426019     9B1     3.426019
      18A1     3.970213    10B1     4.243579    10B2     4.243579
      19A1     4.315724    20A1     7.441614

    Final Occupation by Irrep:
             A1    A2    B1    B2
    DOCC [     3,    0,    0,    0 ]
    SOCC [     0,    0,    0,    0 ]
    NA   [     3,    0,    0,    0 ]
    NB   [     3,    0,    0,    0 ]

  @DF-UKS Final Energy:   -38.09224739480350

   => Energetics <=

    Nuclear Repulsion Energy =              2.7818367326730074
    One-Electron Energy =                 -53.5156848099470750
    Two-Electron Energy =                  16.9066824388308774
    DFT Exchange-Correlation Energy =      -4.2650817563603107
    Empirical Dispersion Energy =           0.0000000000000000
    VV10 Nonlocal Energy =                  0.0000000000000000
    Total Energy =                        -38.0922473948035005

  UHF NO Occupations:
  HONO-2 :    1 A1 2.0000000
  HONO-1 :    2 A1 2.0000000
  HONO-0 :    3 A1 2.0000000
  LUNO+0 :    4 A1 0.0000000
  LUNO+1 :    5 A1 0.0000000
  LUNO+2 :    6 A1 0.0000000
  LUNO+3 :    7 A1 0.0000000

Computation Completed

Properties will be evaluated at   0.000000,   0.000000,   0.000000 [a0]

Properties computed using the B3LYP density matrix

 Multipole Moments:

 ------------------------------------------------------------------------------------
     Multipole            Electronic (a.u.)      Nuclear  (a.u.)        Total (a.u.)
 ------------------------------------------------------------------------------------

 L = 1.  Multiply by 2.5417464519 to convert [e a0] to [Debye]
 Dipole X            :          0.0000000            0.0000000            0.0000000
 Dipole Y            :          0.0000000            0.0000000            0.0000000
 Dipole Z            :         -0.2721781            0.9870848            0.7149066
 Magnitude           :                                                    0.7149066

 L = 2.  Multiply by 1.3450342976 to convert [e a0^2] to [Debye ang]
 Quadrupole XX       :         -2.9151515            0.0000000           -2.9151515
 Quadrupole XY       :          0.0000000            0.0000000            0.0000000
 Quadrupole XZ       :          0.0000000            0.0000000            0.0000000
 Quadrupole YY       :         -2.9151515            0.0000000           -2.9151515
 Quadrupole YZ       :          0.0000000            0.0000000            0.0000000
 Quadrupole ZZ       :         -7.2298169            4.1266151           -3.1032019
 Traceless XX        :          1.4382218           -1.3755384            0.0626834
 Traceless YY        :          1.4382218           -1.3755384            0.0626834
 Traceless ZZ        :         -2.8764436            2.7510767           -0.1253669

 ------------------------------------------------------------------------------------
  ==> Computing MBIS Charges <==

  Electron Count from Grid (Expected Number):  6.00000 ( 6.00000)
  Difference: -0.00000

  MBIS Charges: (a.u.)
   Center  Symbol  Z      Pop.       Charge
      1       C    6    5.194932    0.805068
      2       H    1    0.805068    0.194932

  MBIS Dipoles: [e a0]
   Center  Symbol  Z        X           Y           Z
      1       C    6   -0.000000    0.000000    0.358418
      2       H    1    0.000000    0.000000    0.103159

  MBIS Quadrupoles: [e a0^2]
   Center  Symbol  Z      XX        XY        XZ        YY        YZ        ZZ
      1       C    6   -2.5269    0.0000    0.0000   -2.5269    0.0000   -3.7899
      2       H    1   -0.3883   -0.0000   -0.0000   -0.3883   -0.0000   -0.3982

  MBIS Octupoles: [e a0^3]
   Center  Symbol  Z      XXX       XXY       XXZ       XYY       XYZ       XZZ       YYY       YYZ       YZZ       ZZZ
      1       C    6    0.0000    0.0000    0.4139   -0.0000   -0.0000    0.0000    0.0000    0.4139    0.0000    1.0814
      2       H    1    0.0000    0.0000    0.0142   -0.0000   -0.0000   -0.0000    0.0000    0.0142   -0.0000    0.0661

  MBIS Radial Moments:
   Center  Symbol  Z      [a0^2]      [a0^3]      [a0^4]
      1       C    6    8.843712   18.840784   47.897558
      2       H    1    1.174751    1.966608    3.942263

  MBIS Valence Widths: [a0]
   Center  Symbol  Z     Width
      1       C    6    0.461218
      2       H    1    0.356279

*** tstop() called on Mac.lan at Sun Aug 10 18:26:25 2025
Module time:
	user time   =       2.94 seconds =       0.05 minutes
	system time =       1.81 seconds =       0.03 minutes
	total time  =          1 seconds =       0.02 minutes
Total time:
	user time   =      10.07 seconds =       0.17 minutes
	system time =       4.21 seconds =       0.07 minutes
	total time  =          1 seconds =       0.02 minutes

    Psi4 stopped on: Sunday, 10 August 2025 06:26PM
    Psi4 wall time for execution: 0:00:01.40

*** Psi4 exiting successfully. Buy a developer a beer!
