                               Psi4 1.9.1 release

  ==> Input File <==

--------------------------------------------------------------------------
molecule {
1 1
C           0.000000           0.000000           0.000000
H           0.000000           0.000000           1.245747
}

set {
basis              cc-pvtz
reference          uks
maxiter            500
DAMPING_PERCENTAGE 1
E_CONVERGENCE      1.0E-8
D_CONVERGENCE      1.0E-8
DIIS_MAX_VECS      400
MBIS_MAXITER       8000
guess              read
}

E, wfn = energy('b3lyp', restart_file='last_wfn', return_wfn=True)
properties('b3lyp','MBIS_CHARGES', wfn=wfn)
wfn.to_file('last_wfn')
--------------------------------------------------------------------------

    Molecular point group: c2v
  Charge       = 1
  Multiplicity = 1
  Basis Set: CC-PVTZ
    Blend: CC-PVTZ
  Basis Set: (CC-PVTZ AUX)
    Blend: CC-PVTZ-JKFIT
  @DF-UKS Final Energy:   -38.08746955531941
    Total Energy =                        -38.0874695553194158
 Dipole X            :          0.0000000            0.0000000            0.0000000
 Dipole Y            :          0.0000000            0.0000000            0.0000000
 Dipole Z            :         -0.3530168            1.0773667            0.7243499
 Magnitude           :                                                    0.7243499
    Molecular point group: c2v

    Geometry (in Angstrom), charge = 1, multiplicity = 1:

       Center              X                  Y                   Z               Mass
    ------------   -----------------  -----------------  -----------------  -----------------
         C            0.000000000000     0.000000000000    -0.096518442346    12.000000000000
         H            0.000000000000     0.000000000000     1.149228557654     1.007825032230

  Charge       = 1
  Multiplicity = 1
  Basis Set: CC-PVTZ
    Blend: CC-PVTZ
  Basis Set: (CC-PVTZ AUX)
    Blend: CC-PVTZ-JKFIT

    Orbital Energies [Eh]
    ---------------------

    Alpha Occupied:

       1A1   -10.804582     2A1    -1.023133     3A1    -0.713140

    Alpha Virtual:

       1B1    -0.541426     1B2    -0.541426     4A1    -0.256841
       5A1    -0.013998     2B1     0.008706     2B2     0.008706
       6A1     0.031986     7A1     0.162074     3B1     0.220435
       3B2     0.220435     8A1     0.321741     1A2     0.321741
       9A1     0.603868     4B1     0.678387     4B2     0.678387
      10A1     0.941662     5B1     1.529509     5B2     1.529509
      11A1     1.725512    12A1     1.919411     2A2     2.146324
      13A1     2.146324     6B2     2.184623     6B1     2.184623
       7B1     2.252207     7B2     2.252207    14A1     2.407644
      15A1     2.493383     3A2     2.493383     8B2     2.635693
       8B1     2.635693    16A1     2.727422     4A2     3.084282
      17A1     3.084285     9B1     3.384835     9B2     3.384835
      18A1     3.657166    10B1     4.023492    10B2     4.023492
      19A1     4.126973    20A1     6.588775

    Beta Occupied:

       1A1   -10.804582     2A1    -1.023133     3A1    -0.713140

    Beta Virtual:

       1B1    -0.541426     1B2    -0.541426     4A1    -0.256841
       5A1    -0.013998     2B1     0.008706     2B2     0.008706
       6A1     0.031986     7A1     0.162074     3B1     0.220435
       3B2     0.220435     8A1     0.321741     1A2     0.321741
       9A1     0.603868     4B1     0.678387     4B2     0.678387
      10A1     0.941662     5B1     1.529509     5B2     1.529509
      11A1     1.725512    12A1     1.919411     2A2     2.146324
      13A1     2.146324     6B2     2.184623     6B1     2.184623
       7B1     2.252207     7B2     2.252207    14A1     2.407644
      15A1     2.493383     3A2     2.493383     8B2     2.635693
       8B1     2.635693    16A1     2.727422     4A2     3.084282
      17A1     3.084285     9B1     3.384835     9B2     3.384835
      18A1     3.657166    10B1     4.023492    10B2     4.023492
      19A1     4.126973    20A1     6.588775

    Final Occupation by Irrep:
             A1    A2    B1    B2
    DOCC [     3,    0,    0,    0 ]
    SOCC [     0,    0,    0,    0 ]
    NA   [     3,    0,    0,    0 ]
    NB   [     3,    0,    0,    0 ]

  @DF-UKS Final Energy:   -38.08746955533359

   => Energetics <=

    Nuclear Repulsion Energy =              2.5487223842561932
    One-Electron Energy =                 -53.1254216195704956
    Two-Electron Energy =                  16.7286713733560646
    DFT Exchange-Correlation Energy =      -4.2394416933753556
    Empirical Dispersion Energy =           0.0000000000000000
    VV10 Nonlocal Energy =                  0.0000000000000000
    Total Energy =                        -38.0874695553335911

  UHF NO Occupations:
  HONO-2 :    1 A1 2.0000000
  HONO-1 :    2 A1 2.0000000
  HONO-0 :    3 A1 2.0000000
  LUNO+0 :    4 A1 0.0000000
  LUNO+1 :    5 A1 0.0000000
  LUNO+2 :    6 A1 0.0000000
  LUNO+3 :    7 A1 0.0000000

Computation Completed

Properties will be evaluated at   0.000000,   0.000000,   0.000000 [a0]

Properties computed using the B3LYP density matrix

 Multipole Moments:

 ------------------------------------------------------------------------------------
     Multipole            Electronic (a.u.)      Nuclear  (a.u.)        Total (a.u.)
 ------------------------------------------------------------------------------------

 L = 1.  Multiply by 2.5417464519 to convert [e a0] to [Debye]
 Dipole X            :          0.0000000            0.0000000            0.0000000
 Dipole Y            :          0.0000000            0.0000000            0.0000000
 Dipole Z            :         -0.3530168            1.0773667            0.7243499
 Magnitude           :                                                    0.7243499

 L = 2.  Multiply by 1.3450342976 to convert [e a0^2] to [Debye ang]
 Quadrupole XX       :         -2.9810161            0.0000000           -2.9810161
 Quadrupole XY       :          0.0000000            0.0000000            0.0000000
 Quadrupole XZ       :          0.0000000            0.0000000            0.0000000
 Quadrupole YY       :         -2.9810161            0.0000000           -2.9810161
 Quadrupole YZ       :          0.0000000            0.0000000            0.0000000
 Quadrupole ZZ       :         -7.7938022            4.9160033           -2.8777989
 Traceless XX        :          1.6042620           -1.6386678           -0.0344058
 Traceless YY        :          1.6042620           -1.6386678           -0.0344058
 Traceless ZZ        :         -3.2085240            3.2773355            0.0688115

 ------------------------------------------------------------------------------------
  ==> Computing MBIS Charges <==

  Electron Count from Grid (Expected Number):  6.00000 ( 6.00000)
  Difference:  0.00000

  MBIS Charges: (a.u.)
   Center  Symbol  Z      Pop.       Charge
      1       C    6    5.209058    0.790942
      2       H    1    0.790942    0.209058

  MBIS Dipoles: [e a0]
   Center  Symbol  Z        X           Y           Z
      1       C    6    0.000000   -0.000000    0.294949
      2       H    1    0.000000   -0.000000    0.119647

  MBIS Quadrupoles: [e a0^2]
   Center  Symbol  Z      XX        XY        XZ        YY        YZ        ZZ
      1       C    6   -2.5551    0.0000   -0.0000   -2.5551   -0.0000   -3.8655
      2       H    1   -0.4259   -0.0000   -0.0000   -0.4259   -0.0000   -0.4367

  MBIS Octupoles: [e a0^3]
   Center  Symbol  Z      XXX       XXY       XXZ       XYY       XYZ       XZZ       YYY       YYZ       YZZ       ZZZ
      1       C    6    0.0000   -0.0000    0.3373    0.0000   -0.0000    0.0000    0.0000    0.3373   -0.0000    0.8907
      2       H    1    0.0000   -0.0000    0.0226   -0.0000   -0.0000   -0.0000   -0.0000    0.0226   -0.0000    0.1003

  MBIS Radial Moments:
   Center  Symbol  Z      [a0^2]      [a0^3]      [a0^4]
      1       C    6    8.975708   19.196948   48.946480
      2       H    1    1.288524    2.276126    4.810033

  MBIS Valence Widths: [a0]
   Center  Symbol  Z     Width
      1       C    6    0.464226
      2       H    1    0.376502

*** tstop() called on Mac.lan at Sun Aug 10 18:27:16 2025
Module time:
	user time   =       3.24 seconds =       0.05 minutes
	system time =       1.28 seconds =       0.02 minutes
	total time  =          0 seconds =       0.00 minutes
Total time:
	user time   =      10.91 seconds =       0.18 minutes
	system time =       3.82 seconds =       0.06 minutes
	total time  =          1 seconds =       0.02 minutes

    Psi4 stopped on: Sunday, 10 August 2025 06:27PM
    Psi4 wall time for execution: 0:00:01.45

*** Psi4 exiting successfully. Buy a developer a beer!
