                               Psi4 1.9.1 release

  ==> Input File <==

--------------------------------------------------------------------------
molecule {
1 2
H           0.000000           0.000000           0.000000
H           0.000000           0.000000           1.547914
}

set {
basis              cc-pvtz
reference          uks
maxiter            500
DAMPING_PERCENTAGE 1
E_CONVERGENCE      1.0E-8
D_CONVERGENCE      1.0E-8
DIIS_MAX_VECS      400
MBIS_MAXITER       8000
guess              read
}

E, wfn = energy('b3lyp', restart_file='last_wfn', return_wfn=True)
properties('b3lyp','MBIS_CHARGES', wfn=wfn)
wfn.to_file('last_wfn')
--------------------------------------------------------------------------

    Molecular point group: d2h
  Charge       = 1
  Multiplicity = 2
  Basis Set: CC-PVTZ
    Blend: CC-PVTZ
  Basis Set: (CC-PVTZ AUX)
    Blend: CC-PVTZ-JKFIT
  @DF-UKS Final Energy:    -0.59681186332269
    Total Energy =                         -0.5968118633226928
 Dipole X            :          0.0000000            0.0000000            0.0000000
 Dipole Y            :          0.0000000            0.0000000            0.0000000
 Dipole Z            :          0.0000000            0.0000000            0.0000000
 Magnitude           :                                                    0.0000000
    Molecular point group: d2h

    Geometry (in Angstrom), charge = 1, multiplicity = 2:

       Center              X                  Y                   Z               Mass
    ------------   -----------------  -----------------  -----------------  -----------------
         H            0.000000000000     0.000000000000    -0.773957000000     1.007825032230
         H            0.000000000000     0.000000000000     0.773957000000     1.007825032230

  Charge       = 1
  Multiplicity = 2
  Basis Set: CC-PVTZ
    Blend: CC-PVTZ
  Basis Set: (CC-PVTZ AUX)
    Blend: CC-PVTZ-JKFIT

    Orbital Energies [Eh]
    ---------------------

    Alpha Occupied:

       1Ag    -0.782871

    Alpha Virtual:

       1B1u   -0.517835     2Ag    -0.048183     2B1u    0.012185
       1B2u    0.116322     1B3u    0.116322     3Ag     0.209667
       1B3g    0.374000     1B2g    0.374000     3B1u    0.752990
       4Ag     1.719304     4B1u    1.900266     5Ag     2.405245
       2B2u    2.471313     2B3u    2.471313     1B1g    2.693841
       6Ag     2.693842     1Au     2.795191     5B1u    2.795192
       2B2g    2.976851     2B3g    2.976851     3B3u    3.078019
       3B2u    3.078019     6B1u    3.159319     3B2g    3.315798
       3B3g    3.315798     7Ag     3.417737     7B1u    4.219532

    Beta Occupied:

    Beta Virtual:

       1Ag    -0.484421     1B1u   -0.299203     2Ag     0.046518
       2B1u    0.117144     1B3u    0.248020     1B2u    0.248020
       3Ag     0.362619     1B2g    0.498068     1B3g    0.498068
       3B1u    0.883853     4Ag     2.030678     4B1u    2.192619
       5Ag     2.606614     2B3u    2.660271     2B2u    2.660271
       6Ag     2.877141     1B1g    2.877144     5B1u    2.978482
       1Au     2.978486     2B3g    3.202133     2B2g    3.202133
       3B3u    3.330657     3B2u    3.330657     6B1u    3.420297
       3B2g    3.532694     3B3g    3.532694     7Ag     3.667620
       7B1u    4.427493

    Final Occupation by Irrep:
             Ag   B1g   B2g   B3g    Au   B1u   B2u   B3u
    DOCC [     0,    0,    0,    0,    0,    0,    0,    0 ]
    SOCC [     1,    0,    0,    0,    0,    0,    0,    0 ]
    NA   [     1,    0,    0,    0,    0,    0,    0,    0 ]
    NB   [     0,    0,    0,    0,    0,    0,    0,    0 ]

  @DF-UKS Final Energy:    -0.59681186330029

   => Energetics <=

    Nuclear Repulsion Energy =              0.3418647358121963
    One-Electron Energy =                  -0.9192099929216162
    Two-Electron Energy =                   0.2184362025444643
    DFT Exchange-Correlation Energy =      -0.2379028087353385
    Empirical Dispersion Energy =           0.0000000000000000
    VV10 Nonlocal Energy =                  0.0000000000000000
    Total Energy =                         -0.5968118633002940

  UHF NO Occupations:
  HONO-0 :    1 Ag 1.0000000
  LUNO+0 :    2 Ag 0.0000000
  LUNO+1 :    3 Ag 0.0000000
  LUNO+2 :    4 Ag 0.0000000
  LUNO+3 :    3B3u 0.0000000

Computation Completed

Properties will be evaluated at   0.000000,   0.000000,   0.000000 [a0]

Properties computed using the B3LYP density matrix

 Multipole Moments:

 ------------------------------------------------------------------------------------
     Multipole            Electronic (a.u.)      Nuclear  (a.u.)        Total (a.u.)
 ------------------------------------------------------------------------------------

 L = 1.  Multiply by 2.5417464519 to convert [e a0] to [Debye]
 Dipole X            :          0.0000000            0.0000000            0.0000000
 Dipole Y            :          0.0000000            0.0000000            0.0000000
 Dipole Z            :          0.0000000            0.0000000            0.0000000
 Magnitude           :                                                    0.0000000

 L = 2.  Multiply by 1.3450342976 to convert [e a0^2] to [Debye ang]
 Quadrupole XX       :         -0.7654938            0.0000000           -0.7654938
 Quadrupole XY       :          0.0000000            0.0000000            0.0000000
 Quadrupole XZ       :          0.0000000            0.0000000            0.0000000
 Quadrupole YY       :         -0.7654938            0.0000000           -0.7654938
 Quadrupole YZ       :          0.0000000            0.0000000            0.0000000
 Quadrupole ZZ       :         -2.1684882            4.2782031            2.1097148
 Traceless XX        :          0.4676648           -1.4260677           -0.9584029
 Traceless YY        :          0.4676648           -1.4260677           -0.9584029
 Traceless ZZ        :         -0.9353296            2.8521354            1.9168058

 ------------------------------------------------------------------------------------
  ==> Computing MBIS Charges <==

  Electron Count from Grid (Expected Number):  1.00000 ( 1.00000)
  Difference: -0.00000

  MBIS Charges: (a.u.)
   Center  Symbol  Z      Pop.       Charge
      1       H    1    0.500000    0.500000
      2       H    1    0.500000    0.500000

  MBIS Dipoles: [e a0]
   Center  Symbol  Z        X           Y           Z
      1       H    1    0.000000    0.000000   -0.135077
      2       H    1   -0.000000   -0.000000    0.135077

  MBIS Quadrupoles: [e a0^2]
   Center  Symbol  Z      XX        XY        XZ        YY        YZ        ZZ
      1       H    1   -0.3827   -0.0000   -0.0000   -0.3827   -0.0000   -0.4098
      2       H    1   -0.3827   -0.0000    0.0000   -0.3827   -0.0000   -0.4098

  MBIS Octupoles: [e a0^3]
   Center  Symbol  Z      XXX       XXY       XXZ       XYY       XYZ       XZZ       YYY       YYZ       YZZ       ZZZ
      1       H    1    0.0000   -0.0000   -0.1136   -0.0000    0.0000    0.0000   -0.0000   -0.1136    0.0000   -0.2790
      2       H    1    0.0000    0.0000    0.1136   -0.0000   -0.0000    0.0000    0.0000    0.1136    0.0000    0.2790

  MBIS Radial Moments:
   Center  Symbol  Z      [a0^2]      [a0^3]      [a0^4]
      1       H    1    1.175306    2.500574    6.302851
      2       H    1    1.175306    2.500574    6.302851

  MBIS Valence Widths: [a0]
   Center  Symbol  Z     Width
      1       H    1    0.449757
      2       H    1    0.449757

*** tstop() called on Mac.lan at Sun Aug 10 18:11:54 2025
Module time:
	user time   =       0.47 seconds =       0.01 minutes
	system time =       1.33 seconds =       0.02 minutes
	total time  =          0 seconds =       0.00 minutes
Total time:
	user time   =       1.17 seconds =       0.02 minutes
	system time =       3.45 seconds =       0.06 minutes
	total time  =          1 seconds =       0.02 minutes

    Psi4 stopped on: Sunday, 10 August 2025 06:11PM
    Psi4 wall time for execution: 0:00:00.60

*** Psi4 exiting successfully. Buy a developer a beer!
