                               Psi4 1.9.1 release

  ==> Input File <==

--------------------------------------------------------------------------
molecule {
1 1
C           0.000000           0.000000           0.000000
H           0.000000           0.000000           1.329261
}

set {
basis              cc-pvtz
reference          uks
maxiter            500
DAMPING_PERCENTAGE 1
E_CONVERGENCE      1.0E-8
D_CONVERGENCE      1.0E-8
DIIS_MAX_VECS      400
MBIS_MAXITER       8000
guess              read
}

E, wfn = energy('b3lyp', restart_file='last_wfn', return_wfn=True)
properties('b3lyp','MBIS_CHARGES', wfn=wfn)
wfn.to_file('last_wfn')
--------------------------------------------------------------------------

    Molecular point group: c2v
  Charge       = 1
  Multiplicity = 1
  Basis Set: CC-PVTZ
    Blend: CC-PVTZ
  Basis Set: (CC-PVTZ AUX)
    Blend: CC-PVTZ-JKFIT
  @DF-UKS Final Energy:   -38.07929771450858
    Total Energy =                        -38.0792977145085842
 Dipole X            :          0.0000000            0.0000000            0.0000000
 Dipole Y            :          0.0000000            0.0000000            0.0000000
 Dipole Z            :         -0.4135808            1.1495926            0.7360118
 Magnitude           :                                                    0.7360118
    Molecular point group: c2v

    Geometry (in Angstrom), charge = 1, multiplicity = 1:

       Center              X                  Y                   Z               Mass
    ------------   -----------------  -----------------  -----------------  -----------------
         C            0.000000000000     0.000000000000    -0.102988970627    12.000000000000
         H            0.000000000000     0.000000000000     1.226272029373     1.007825032230

  Charge       = 1
  Multiplicity = 1
  Basis Set: CC-PVTZ
    Blend: CC-PVTZ
  Basis Set: (CC-PVTZ AUX)
    Blend: CC-PVTZ-JKFIT

    Orbital Energies [Eh]
    ---------------------

    Alpha Occupied:

       1A1   -10.805623     2A1    -1.005097     3A1    -0.705025

    Alpha Virtual:

       1B1    -0.538163     1B2    -0.538163     4A1    -0.282795
       5A1    -0.015009     2B1     0.009266     2B2     0.009266
       6A1     0.033350     7A1     0.162174     3B1     0.218066
       3B2     0.218066     8A1     0.324668     1A2     0.324668
       9A1     0.582956     4B1     0.657748     4B2     0.657748
      10A1     0.907358     5B2     1.525717     5B1     1.525717
      11A1     1.732664    12A1     2.010111     2A2     2.167339
      13A1     2.167340     6B2     2.174651     6B1     2.174651
       7B1     2.255141     7B2     2.255141    14A1     2.344033
       3A2     2.493450    15A1     2.493450     8B2     2.619027
       8B1     2.619027    16A1     2.709152     4A2     3.029480
      17A1     3.029485     9B1     3.352438     9B2     3.352438
      18A1     3.455862    10B2     3.869820    10B1     3.869820
      19A1     4.005518    20A1     6.042772

    Beta Occupied:

       1A1   -10.805623     2A1    -1.005097     3A1    -0.705025

    Beta Virtual:

       1B1    -0.538163     1B2    -0.538163     4A1    -0.282795
       5A1    -0.015009     2B1     0.009266     2B2     0.009266
       6A1     0.033350     7A1     0.162174     3B1     0.218066
       3B2     0.218066     8A1     0.324668     1A2     0.324668
       9A1     0.582956     4B1     0.657748     4B2     0.657748
      10A1     0.907358     5B2     1.525717     5B1     1.525717
      11A1     1.732664    12A1     2.010111     2A2     2.167339
      13A1     2.167340     6B2     2.174651     6B1     2.174651
       7B1     2.255141     7B2     2.255141    14A1     2.344033
       3A2     2.493450    15A1     2.493450     8B2     2.619027
       8B1     2.619027    16A1     2.709152     4A2     3.029480
      17A1     3.029485     9B1     3.352438     9B2     3.352438
      18A1     3.455862    10B2     3.869820    10B1     3.869820
      19A1     4.005518    20A1     6.042772

    Final Occupation by Irrep:
             A1    A2    B1    B2
    DOCC [     3,    0,    0,    0 ]
    SOCC [     0,    0,    0,    0 ]
    NA   [     3,    0,    0,    0 ]
    NB   [     3,    0,    0,    0 ]

  @DF-UKS Final Energy:   -38.07929771453171

   => Energetics <=

    Nuclear Repulsion Energy =              2.3885928075976053
    One-Electron Energy =                 -52.8514180548339780
    Two-Electron Energy =                  16.6054073693983995
    DFT Exchange-Correlation Energy =      -4.2218798366937396
    Empirical Dispersion Energy =           0.0000000000000000
    VV10 Nonlocal Energy =                  0.0000000000000000
    Total Energy =                        -38.0792977145317124

  UHF NO Occupations:
  HONO-2 :    1 A1 2.0000000
  HONO-1 :    2 A1 2.0000000
  HONO-0 :    3 A1 2.0000000
  LUNO+0 :    4 A1 0.0000000
  LUNO+1 :    5 A1 0.0000000
  LUNO+2 :    6 A1 0.0000000
  LUNO+3 :    7 A1 0.0000000

Computation Completed

Properties will be evaluated at   0.000000,   0.000000,   0.000000 [a0]

Properties computed using the B3LYP density matrix

 Multipole Moments:

 ------------------------------------------------------------------------------------
     Multipole            Electronic (a.u.)      Nuclear  (a.u.)        Total (a.u.)
 ------------------------------------------------------------------------------------

 L = 1.  Multiply by 2.5417464519 to convert [e a0] to [Debye]
 Dipole X            :          0.0000000            0.0000000            0.0000000
 Dipole Y            :          0.0000000            0.0000000            0.0000000
 Dipole Z            :         -0.4135808            1.1495926            0.7360118
 Magnitude           :                                                    0.7360118

 L = 2.  Multiply by 1.3450342976 to convert [e a0^2] to [Debye ang]
 Quadrupole XX       :         -3.0318249            0.0000000           -3.0318249
 Quadrupole XY       :          0.0000000            0.0000000            0.0000000
 Quadrupole XZ       :          0.0000000            0.0000000            0.0000000
 Quadrupole YY       :         -3.0318249            0.0000000           -3.0318249
 Quadrupole YZ       :          0.0000000            0.0000000            0.0000000
 Quadrupole ZZ       :         -8.2626572            5.5972279           -2.6654293
 Traceless XX        :          1.7436108           -1.8657426           -0.1221319
 Traceless YY        :          1.7436108           -1.8657426           -0.1221319
 Traceless ZZ        :         -3.4872215            3.7314853            0.2442638

 ------------------------------------------------------------------------------------
  ==> Computing MBIS Charges <==

  Electron Count from Grid (Expected Number):  6.00000 ( 6.00000)
  Difference:  0.00000

  MBIS Charges: (a.u.)
   Center  Symbol  Z      Pop.       Charge
      1       C    6    5.220049    0.779951
      2       H    1    0.779952    0.220048

  MBIS Dipoles: [e a0]
   Center  Symbol  Z        X           Y           Z
      1       C    6   -0.000000    0.000000    0.245619
      2       H    1   -0.000000   -0.000000    0.132265

  MBIS Quadrupoles: [e a0^2]
   Center  Symbol  Z      XX        XY        XZ        YY        YZ        ZZ
      1       C    6   -2.5771    0.0000   -0.0000   -2.5771    0.0000   -3.9280
      2       H    1   -0.4547    0.0000   -0.0000   -0.4547    0.0000   -0.4660

  MBIS Octupoles: [e a0^3]
   Center  Symbol  Z      XXX       XXY       XXZ       XYY       XYZ       XZZ       YYY       YYZ       YZZ       ZZZ
      1       C    6   -0.0000   -0.0000    0.2769   -0.0000   -0.0000   -0.0000    0.0000    0.2769   -0.0000    0.7314
      2       H    1    0.0000    0.0000    0.0317   -0.0000   -0.0000   -0.0000    0.0000    0.0317    0.0000    0.1335

  MBIS Radial Moments:
   Center  Symbol  Z      [a0^2]      [a0^3]      [a0^4]
      1       C    6    9.082314   19.494398   49.839210
      2       H    1    1.375357    2.523996    5.532960

  MBIS Valence Widths: [a0]
   Center  Symbol  Z     Width
      1       C    6    0.466601
      2       H    1    0.391758

*** tstop() called on Mac.lan at Sun Aug 10 18:27:24 2025
Module time:
	user time   =       2.63 seconds =       0.04 minutes
	system time =       1.99 seconds =       0.03 minutes
	total time  =          0 seconds =       0.00 minutes
Total time:
	user time   =      10.58 seconds =       0.18 minutes
	system time =       4.59 seconds =       0.08 minutes
	total time  =          1 seconds =       0.02 minutes

    Psi4 stopped on: Sunday, 10 August 2025 06:27PM
    Psi4 wall time for execution: 0:00:01.49

*** Psi4 exiting successfully. Buy a developer a beer!
