                               Psi4 1.9.1 release

  ==> Input File <==

--------------------------------------------------------------------------
molecule {
1 2
H           0.000000           0.000000           0.000000
H           0.000000           0.000000           1.568371
}

set {
basis              cc-pvtz
reference          uks
maxiter            500
DAMPING_PERCENTAGE 1
E_CONVERGENCE      1.0E-8
D_CONVERGENCE      1.0E-8
DIIS_MAX_VECS      400
MBIS_MAXITER       8000
guess              read
}

E, wfn = energy('b3lyp', restart_file='last_wfn', return_wfn=True)
properties('b3lyp','MBIS_CHARGES', wfn=wfn)
wfn.to_file('last_wfn')
--------------------------------------------------------------------------

    Molecular point group: d2h
  Charge       = 1
  Multiplicity = 2
  Basis Set: CC-PVTZ
    Blend: CC-PVTZ
  Basis Set: (CC-PVTZ AUX)
    Blend: CC-PVTZ-JKFIT
  @DF-UKS Final Energy:    -0.59591756550363
    Total Energy =                         -0.5959175655036325
 Dipole X            :          0.0000000            0.0000000            0.0000000
 Dipole Y            :          0.0000000            0.0000000            0.0000000
 Dipole Z            :          0.0000000            0.0000000            0.0000000
 Magnitude           :                                                    0.0000000
    Molecular point group: d2h

    Geometry (in Angstrom), charge = 1, multiplicity = 2:

       Center              X                  Y                   Z               Mass
    ------------   -----------------  -----------------  -----------------  -----------------
         H            0.000000000000     0.000000000000    -0.784185500000     1.007825032230
         H            0.000000000000     0.000000000000     0.784185500000     1.007825032230

  Charge       = 1
  Multiplicity = 2
  Basis Set: CC-PVTZ
    Blend: CC-PVTZ
  Basis Set: (CC-PVTZ AUX)
    Blend: CC-PVTZ-JKFIT

    Orbital Energies [Eh]
    ---------------------

    Alpha Occupied:

       1Ag    -0.778681

    Alpha Virtual:

       1B1u   -0.520372     2Ag    -0.046424     2B1u    0.011850
       1B2u    0.119338     1B3u    0.119338     3Ag     0.203585
       1B3g    0.370793     1B2g    0.370793     3B1u    0.746244
       4Ag     1.714470     4B1u    1.898431     5Ag     2.416926
       2B2u    2.484215     2B3u    2.484215     1B1g    2.699701
       6Ag     2.699702     1Au     2.791919     5B1u    2.791920
       2B3g    2.964466     2B2g    2.964466     3B3u    3.078238
       3B2u    3.078238     6B1u    3.144701     3B3g    3.304834
       3B2g    3.304834     7Ag     3.400705     7B1u    4.182846

    Beta Occupied:

    Beta Virtual:

       1Ag    -0.481838     1B1u   -0.300927     2Ag     0.048454
       2B1u    0.116504     1B2u    0.250674     1B3u    0.250674
       3Ag     0.356781     1B2g    0.495169     1B3g    0.495169
       3B1u    0.877331     4Ag     2.025216     4B1u    2.191218
       5Ag     2.616901     2B3u    2.673056     2B2u    2.673056
       6Ag     2.883052     1B1g    2.883056     5B1u    2.975270
       1Au     2.975274     2B2g    3.186913     2B3g    3.186913
       3B3u    3.330834     3B2u    3.330834     6B1u    3.405066
       3B2g    3.524312     3B3g    3.524312     7Ag     3.651665
       7B1u    4.390850

    Final Occupation by Irrep:
             Ag   B1g   B2g   B3g    Au   B1u   B2u   B3u
    DOCC [     0,    0,    0,    0,    0,    0,    0,    0 ]
    SOCC [     1,    0,    0,    0,    0,    0,    0,    0 ]
    NA   [     1,    0,    0,    0,    0,    0,    0,    0 ]
    NB   [     0,    0,    0,    0,    0,    0,    0,    0 ]

  @DF-UKS Final Energy:    -0.59591756548132

   => Energetics <=

    Nuclear Repulsion Energy =              0.3374056334056164
    One-Electron Energy =                  -0.9133496428888028
    Two-Electron Energy =                   0.2169667559941836
    DFT Exchange-Correlation Energy =      -0.2369403119923149
    Empirical Dispersion Energy =           0.0000000000000000
    VV10 Nonlocal Energy =                  0.0000000000000000
    Total Energy =                         -0.5959175654813178

  UHF NO Occupations:
  HONO-0 :    1 Ag 1.0000000
  LUNO+0 :    2 Ag 0.0000000
  LUNO+1 :    3 Ag 0.0000000
  LUNO+2 :    3B3u 0.0000000
  LUNO+3 :    2B3u 0.0000000

Computation Completed

Properties will be evaluated at   0.000000,   0.000000,   0.000000 [a0]

Properties computed using the B3LYP density matrix

 Multipole Moments:

 ------------------------------------------------------------------------------------
     Multipole            Electronic (a.u.)      Nuclear  (a.u.)        Total (a.u.)
 ------------------------------------------------------------------------------------

 L = 1.  Multiply by 2.5417464519 to convert [e a0] to [Debye]
 Dipole X            :          0.0000000            0.0000000            0.0000000
 Dipole Y            :          0.0000000            0.0000000            0.0000000
 Dipole Z            :          0.0000000            0.0000000            0.0000000
 Magnitude           :                                                    0.0000000

 L = 2.  Multiply by 1.3450342976 to convert [e a0^2] to [Debye ang]
 Quadrupole XX       :         -0.7701674            0.0000000           -0.7701674
 Quadrupole XY       :          0.0000000            0.0000000            0.0000000
 Quadrupole XZ       :          0.0000000            0.0000000            0.0000000
 Quadrupole YY       :         -0.7701674            0.0000000           -0.7701674
 Quadrupole YZ       :          0.0000000            0.0000000            0.0000000
 Quadrupole ZZ       :         -2.2214774            4.3920305            2.1705531
 Traceless XX        :          0.4837700           -1.4640102           -0.9802401
 Traceless YY        :          0.4837700           -1.4640102           -0.9802401
 Traceless ZZ        :         -0.9675400            2.9280203            1.9604803

 ------------------------------------------------------------------------------------
  ==> Computing MBIS Charges <==

  Electron Count from Grid (Expected Number):  1.00000 ( 1.00000)
  Difference: -0.00000

  MBIS Charges: (a.u.)
   Center  Symbol  Z      Pop.       Charge
      1       H    1    0.500000    0.500000
      2       H    1    0.500000    0.500000

  MBIS Dipoles: [e a0]
   Center  Symbol  Z        X           Y           Z
      1       H    1    0.000000   -0.000000   -0.135353
      2       H    1    0.000000   -0.000000    0.135353

  MBIS Quadrupoles: [e a0^2]
   Center  Symbol  Z      XX        XY        XZ        YY        YZ        ZZ
      1       H    1   -0.3851   -0.0000   -0.0000   -0.3851    0.0000   -0.4139
      2       H    1   -0.3851   -0.0000    0.0000   -0.3851   -0.0000   -0.4139

  MBIS Octupoles: [e a0^3]
   Center  Symbol  Z      XXX       XXY       XXZ       XYY       XYZ       XZZ       YYY       YYZ       YZZ       ZZZ
      1       H    1    0.0000   -0.0000   -0.1148    0.0000    0.0000    0.0000   -0.0000   -0.1148   -0.0000   -0.2840
      2       H    1    0.0000   -0.0000    0.1148    0.0000   -0.0000    0.0000   -0.0000    0.1148   -0.0000    0.2840

  MBIS Radial Moments:
   Center  Symbol  Z      [a0^2]      [a0^3]      [a0^4]
      1       H    1    1.184056    2.529567    6.401804
      2       H    1    1.184056    2.529567    6.401804

  MBIS Valence Widths: [a0]
   Center  Symbol  Z     Width
      1       H    1    0.451320
      2       H    1    0.451320

*** tstop() called on Mac.lan at Sun Aug 10 18:11:55 2025
Module time:
	user time   =       0.54 seconds =       0.01 minutes
	system time =       1.27 seconds =       0.02 minutes
	total time  =          0 seconds =       0.00 minutes
Total time:
	user time   =       1.25 seconds =       0.02 minutes
	system time =       3.37 seconds =       0.06 minutes
	total time  =          1 seconds =       0.02 minutes

    Psi4 stopped on: Sunday, 10 August 2025 06:11PM
    Psi4 wall time for execution: 0:00:00.61

*** Psi4 exiting successfully. Buy a developer a beer!
