                               Psi4 1.9.1 release

  ==> Input File <==

--------------------------------------------------------------------------
molecule {
1 2
N           0.000000           0.000000           0.000000
N           0.000000           0.000000           0.886074
}

set {
basis              cc-pvtz
reference          uks
maxiter            500
DAMPING_PERCENTAGE 1
E_CONVERGENCE      1.0E-8
D_CONVERGENCE      1.0E-8
DIIS_MAX_VECS      400
MBIS_MAXITER       8000
guess              read
}

E, wfn = energy('b3lyp', restart_file='last_wfn', return_wfn=True)
properties('b3lyp','MBIS_CHARGES', wfn=wfn)
wfn.to_file('last_wfn')
--------------------------------------------------------------------------

    Molecular point group: d2h
  Charge       = 1
  Multiplicity = 2
  Basis Set: CC-PVTZ
    Blend: CC-PVTZ
  Basis Set: (CC-PVTZ AUX)
    Blend: CC-PVTZ-JKFIT
  @DF-UKS Final Energy:  -108.77062035804823
    Total Energy =                       -108.7706203580482338
 Dipole X            :          0.0000000            0.0000000            0.0000000
 Dipole Y            :          0.0000000            0.0000000            0.0000000
 Dipole Z            :          0.0000000            0.0000000            0.0000000
 Magnitude           :                                                    0.0000000
    Molecular point group: d2h

    Geometry (in Angstrom), charge = 1, multiplicity = 2:

       Center              X                  Y                   Z               Mass
    ------------   -----------------  -----------------  -----------------  -----------------
         N            0.000000000000     0.000000000000    -0.443037000000    14.003074004430
         N            0.000000000000     0.000000000000     0.443037000000    14.003074004430

  Charge       = 1
  Multiplicity = 2
  Basis Set: CC-PVTZ
    Blend: CC-PVTZ
  Basis Set: (CC-PVTZ AUX)
    Blend: CC-PVTZ-JKFIT

    Orbital Energies [Eh]
    ---------------------

    Alpha Occupied:

       1Ag   -14.880265     1B1u  -14.866947     2Ag    -1.717719
       1B2u   -0.999027     1B3u   -0.999027     2B1u   -0.968693
       3Ag    -0.930866

    Alpha Virtual:

       1B3g   -0.331101     1B2g   -0.331101     3B1u    0.020594
       2B3u    0.039841     2B2u    0.039841     4Ag     0.079774
       5Ag     0.133088     2B3g    0.245704     2B2g    0.245704
       6Ag     0.445755     1B1g    0.445755     4B1u    0.456665
       5B1u    0.790933     3B3u    0.829154     3B2u    0.829154
       6B1u    0.969124     1Au     0.969124     7Ag     1.223087
       3B2g    1.323975     3B3g    1.323975     7B1u    2.032298
       4B3u    2.237044     4B2u    2.237044     8Ag     2.661976
       4B2g    2.873797     4B3g    2.873797     8B1u    2.933234
       5B2u    3.077392     5B3u    3.077392     9Ag     3.113815
       2B1g    3.113815     6B3u    3.366203     6B2u    3.366203
      10Ag     3.656960     5B2g    3.843703     5B3g    3.843703
       6B3g    3.845245     6B2g    3.845245    11Ag     3.958913
       3B1g    3.958914     9B1u    4.009194     2Au     4.009195
      12Ag     4.374160    10B1u    4.643313     7B2u    4.866099
       7B3u    4.866099    11B1u    5.036687     3Au     5.036687
      12B1u    6.077910     7B2g    6.877116     7B3g    6.877116
      13Ag     7.698981    13B1u   23.396615

    Beta Occupied:

       1Ag   -14.866079     1B1u  -14.853475     2Ag    -1.686424
       1B2u   -0.984637     1B3u   -0.984637     2B1u   -0.872699

    Beta Virtual:

       3Ag    -0.750415     1B3g   -0.304339     1B2g   -0.304339
       3B1u    0.032911     2B3u    0.044472     2B2u    0.044472
       4Ag     0.096251     5Ag     0.162878     2B3g    0.253184
       2B2g    0.253184     6Ag     0.451653     1B1g    0.451653
       4B1u    0.487986     5B1u    0.816560     3B3u    0.861678
       3B2u    0.861678     6B1u    0.982274     1Au     0.982274
       7Ag     1.261222     3B2g    1.345853     3B3g    1.345853
       7B1u    2.081357     4B3u    2.247752     4B2u    2.247752
       8Ag     2.692467     4B2g    2.884737     4B3g    2.884737
       8B1u    2.974426     5B2u    3.083770     5B3u    3.083770
       9Ag     3.123171     2B1g    3.123171     6B3u    3.410563
       6B2u    3.410563    10Ag     3.737792     5B3g    3.856452
       5B2g    3.856452     6B2g    3.903331     6B3g    3.903331
      11Ag     3.986308     3B1g    3.986309     9B1u    4.036777
       2Au     4.036778    12Ag     4.414109    10B1u    4.697308
       7B2u    4.914168     7B3u    4.914168    11B1u    5.054491
       3Au     5.054491    12B1u    6.136190     7B2g    6.913922
       7B3g    6.913922    13Ag     7.725507    13B1u   23.418267

    Final Occupation by Irrep:
             Ag   B1g   B2g   B3g    Au   B1u   B2u   B3u
    DOCC [     2,    0,    0,    0,    0,    2,    1,    1 ]
    SOCC [     1,    0,    0,    0,    0,    0,    0,    0 ]
    NA   [     3,    0,    0,    0,    0,    2,    1,    1 ]
    NB   [     2,    0,    0,    0,    0,    2,    1,    1 ]

  @DF-UKS Final Energy:  -108.77062035817991

   => Energetics <=

    Nuclear Repulsion Energy =             29.2635641298920852
    One-Electron Energy =                -198.5365189293580102
    Two-Electron Energy =                  71.5202927120649292
    DFT Exchange-Correlation Energy =     -11.0179582707789017
    Empirical Dispersion Energy =           0.0000000000000000
    VV10 Nonlocal Energy =                  0.0000000000000000
    Total Energy =                       -108.7706203581799116

  UHF NO Occupations:
  HONO-2 :    2 Ag 1.9999188
  HONO-1 :    2B1u 1.9990605
  HONO-0 :    3 Ag 1.0000000
  LUNO+0 :    3B1u 0.0009395
  LUNO+1 :    4 Ag 0.0000812
  LUNO+2 :    2B3u 0.0000629
  LUNO+3 :    2B2u 0.0000629

Computation Completed

Properties will be evaluated at   0.000000,   0.000000,   0.000000 [a0]

Properties computed using the B3LYP density matrix

 Multipole Moments:

 ------------------------------------------------------------------------------------
     Multipole            Electronic (a.u.)      Nuclear  (a.u.)        Total (a.u.)
 ------------------------------------------------------------------------------------

 L = 1.  Multiply by 2.5417464519 to convert [e a0] to [Debye]
 Dipole X            :          0.0000000            0.0000000            0.0000000
 Dipole Y            :          0.0000000            0.0000000            0.0000000
 Dipole Z            :          0.0000000            0.0000000            0.0000000
 Magnitude           :                                                    0.0000000

 L = 2.  Multiply by 1.3450342976 to convert [e a0^2] to [Debye ang]
 Quadrupole XX       :         -5.6294709            0.0000000           -5.6294709
 Quadrupole XY       :          0.0000000            0.0000000            0.0000000
 Quadrupole XZ       :          0.0000000            0.0000000            0.0000000
 Quadrupole YY       :         -5.6294709            0.0000000           -5.6294709
 Quadrupole YZ       :          0.0000000            0.0000000            0.0000000
 Quadrupole ZZ       :        -14.6884788            9.8130896           -4.8753891
 Traceless XX        :          3.0196693           -3.2710299           -0.2513606
 Traceless YY        :          3.0196693           -3.2710299           -0.2513606
 Traceless ZZ        :         -6.0393386            6.5420597            0.5027212

 ------------------------------------------------------------------------------------
  ==> Computing MBIS Charges <==

  Electron Count from Grid (Expected Number): 13.00000 (13.00000)
  Difference: -0.00000

  MBIS Charges: (a.u.)
   Center  Symbol  Z      Pop.       Charge
      1       N    7    6.500000    0.500000
      2       N    7    6.500000    0.500000

  MBIS Dipoles: [e a0]
   Center  Symbol  Z        X           Y           Z
      1       N    7   -0.000000    0.000000   -0.154883
      2       N    7   -0.000000    0.000000    0.154883

  MBIS Quadrupoles: [e a0^2]
   Center  Symbol  Z      XX        XY        XZ        YY        YZ        ZZ
      1       N    7   -2.8147   -0.0000    0.0000   -2.8147    0.0000   -3.0475
      2       N    7   -2.8147   -0.0000   -0.0000   -2.8147   -0.0000   -3.0475

  MBIS Octupoles: [e a0^3]
   Center  Symbol  Z      XXX       XXY       XXZ       XYY       XYZ       XZZ       YYY       YYZ       YZZ       ZZZ
      1       N    7    0.0000    0.0000   -0.0675   -0.0000    0.0000   -0.0000   -0.0000   -0.0675   -0.0000   -0.0734
      2       N    7    0.0000    0.0000    0.0675   -0.0000   -0.0000   -0.0000    0.0000    0.0675    0.0000    0.0734

  MBIS Radial Moments:
   Center  Symbol  Z      [a0^2]      [a0^3]      [a0^4]
      1       N    7    8.676974   15.861989   34.683788
      2       N    7    8.676974   15.861989   34.683788

  MBIS Valence Widths: [a0]
   Center  Symbol  Z     Width
      1       N    7    0.386557
      2       N    7    0.386557

*** tstop() called on Mac.lan at Sun Aug 10 18:24:32 2025
Module time:
	user time   =       4.35 seconds =       0.07 minutes
	system time =       2.19 seconds =       0.04 minutes
	total time  =          1 seconds =       0.02 minutes
Total time:
	user time   =      17.20 seconds =       0.29 minutes
	system time =       4.96 seconds =       0.08 minutes
	total time  =          2 seconds =       0.03 minutes

    Psi4 stopped on: Sunday, 10 August 2025 06:24PM
    Psi4 wall time for execution: 0:00:02.21

*** Psi4 exiting successfully. Buy a developer a beer!
