                               Psi4 1.9.1 release

  ==> Input File <==

--------------------------------------------------------------------------
molecule {
0 2
C           0.000000           0.000000           0.000000
H           0.000000           0.000000           0.736138
}

set {
basis              cc-pvtz
reference          uks
maxiter            500
DAMPING_PERCENTAGE 1
E_CONVERGENCE      1.0E-8
D_CONVERGENCE      1.0E-8
DIIS_MAX_VECS      400
MBIS_MAXITER       8000
guess              read
}

E, wfn = energy('b3lyp', restart_file='last_wfn', return_wfn=True)
properties('b3lyp','MBIS_CHARGES', wfn=wfn)
wfn.to_file('last_wfn')
--------------------------------------------------------------------------

    Molecular point group: c2v
  Charge       = 0
  Multiplicity = 2
  Basis Set: CC-PVTZ
    Blend: CC-PVTZ
  Basis Set: (CC-PVTZ AUX)
    Blend: CC-PVTZ-JKFIT
  @DF-UKS Final Energy:   -38.31656722845501
    Total Energy =                        -38.3165672284550283
 Dipole X            :          0.0000000            0.0000000            0.0000000
 Dipole Y            :          0.0000000            0.0000000            0.0000000
 Dipole Z            :          0.1435514            0.6366386            0.7801900
 Magnitude           :                                                    0.7801900
    Molecular point group: c2v

    Geometry (in Angstrom), charge = 0, multiplicity = 2:

       Center              X                  Y                   Z               Mass
    ------------   -----------------  -----------------  -----------------  -----------------
         C            0.000000000000     0.000000000000    -0.057034769590    12.000000000000
         H            0.000000000000     0.000000000000     0.679103230410     1.007825032230

  Charge       = 0
  Multiplicity = 2
  Basis Set: CC-PVTZ
    Blend: CC-PVTZ
  Basis Set: (CC-PVTZ AUX)
    Blend: CC-PVTZ-JKFIT

    Orbital Energies [Eh]
    ---------------------

    Alpha Occupied:

       1A1   -10.241489     2A1    -0.765608     3A1    -0.325454
       1B1    -0.262075

    Alpha Virtual:

       1B2    -0.150376     4A1     0.074551     5A1     0.282816
       2B1     0.290217     2B2     0.308950     6A1     0.390640
       3B1     0.627427     7A1     0.630295     3B2     0.632501
       1A2     0.654023     8A1     0.660548     9A1     1.018118
       4B1     1.097737     4B2     1.098022    10A1     1.857919
       5B1     1.908594     5B2     1.932149    11A1     1.992702
      12A1     2.245202     2A2     2.587287    13A1     2.591305
       6B1     2.642945     6B2     2.645114     7B1     2.723189
       7B2     2.731511     3A2     2.876090    14A1     2.886247
       8B1     3.030442     8B2     3.031911    15A1     3.063418
      16A1     3.886204     4A2     4.040518    17A1     4.043938
       9B2     4.085716     9B1     4.086597    18A1     5.694421
      10B1     5.711970    10B2     5.715188    19A1     6.356509
      20A1    13.881844

    Beta Occupied:

       1A1   -10.227007     2A1    -0.727124     3A1    -0.299334

    Beta Virtual:

       1B2    -0.134099     1B1    -0.088158     4A1     0.077163
       5A1     0.289187     2B2     0.316071     2B1     0.343468
       6A1     0.405871     3B2     0.635544     7A1     0.644148
       3B1     0.663841     1A2     0.697476     8A1     0.698397
       9A1     1.027854     4B2     1.098896     4B1     1.116895
      10A1     1.879022     5B2     1.943949     5B1     1.986938
      11A1     2.002380    12A1     2.277714     2A2     2.622979
      13A1     2.623398     6B2     2.700160     6B1     2.700694
       7B2     2.735714     7B1     2.773555    14A1     2.942921
       3A2     2.945342     8B2     3.035675     8B1     3.068509
      15A1     3.084082    16A1     3.897191     4A2     4.064882
      17A1     4.066165     9B2     4.086333     9B1     4.108610
      18A1     5.708316    10B2     5.717549    10B1     5.748305
      19A1     6.363029    20A1    13.897364

    Final Occupation by Irrep:
             A1    A2    B1    B2
    DOCC [     3,    0,    0,    0 ]
    SOCC [     0,    0,    1,    0 ]
    NA   [     3,    0,    1,    0 ]
    NB   [     3,    0,    0,    0 ]

  @DF-UKS Final Energy:   -38.31656722881334

   => Energetics <=

    Nuclear Repulsion Energy =              4.3131359392124846
    One-Electron Energy =                 -59.0221903688200200
    Two-Electron Energy =                  21.0889920648724214
    DFT Exchange-Correlation Energy =      -4.6965048640782321
    Empirical Dispersion Energy =           0.0000000000000000
    VV10 Nonlocal Energy =                  0.0000000000000000
    Total Energy =                        -38.3165672288133408

  UHF NO Occupations:
  HONO-2 :    2 A1 1.9999107
  HONO-1 :    3 A1 1.9988171
  HONO-0 :    1 B1 1.0000000
  LUNO+0 :    4 A1 0.0011829
  LUNO+1 :    5 A1 0.0000893
  LUNO+2 :    6 A1 0.0000007
  LUNO+3 :    7 A1 0.0000000

Computation Completed

Properties will be evaluated at   0.000000,   0.000000,   0.000000 [a0]

Properties computed using the B3LYP density matrix

 Multipole Moments:

 ------------------------------------------------------------------------------------
     Multipole            Electronic (a.u.)      Nuclear  (a.u.)        Total (a.u.)
 ------------------------------------------------------------------------------------

 L = 1.  Multiply by 2.5417464519 to convert [e a0] to [Debye]
 Dipole X            :          0.0000000            0.0000000            0.0000000
 Dipole Y            :          0.0000000            0.0000000            0.0000000
 Dipole Z            :          0.1435514            0.6366386            0.7801900
 Magnitude           :                                                    0.7801900

 L = 2.  Multiply by 1.3450342976 to convert [e a0^2] to [Debye ang]
 Quadrupole XX       :         -5.4070263            0.0000000           -5.4070263
 Quadrupole XY       :          0.0000000            0.0000000            0.0000000
 Quadrupole XZ       :          0.0000000            0.0000000            0.0000000
 Quadrupole YY       :         -3.9247008            0.0000000           -3.9247008
 Quadrupole YZ       :          0.0000000            0.0000000            0.0000000
 Quadrupole ZZ       :         -7.1071834            1.7166072           -5.3905761
 Traceless XX        :          0.0726105           -0.5722024           -0.4995919
 Traceless YY        :          1.5549360           -0.5722024            0.9827336
 Traceless ZZ        :         -1.6275466            1.1444048           -0.4831417

 ------------------------------------------------------------------------------------
  ==> Computing MBIS Charges <==

  Electron Count from Grid (Expected Number):  7.00000 ( 7.00000)
  Difference:  0.00000

  MBIS Charges: (a.u.)
   Center  Symbol  Z      Pop.       Charge
      1       C    6    6.143856   -0.143856
      2       H    1    0.856144    0.143856

  MBIS Dipoles: [e a0]
   Center  Symbol  Z        X           Y           Z
      1       C    6   -0.000000    0.000000    0.553342
      2       H    1   -0.000000    0.000000    0.026730

  MBIS Quadrupoles: [e a0^2]
   Center  Symbol  Z      XX        XY        XZ        YY        YZ        ZZ
      1       C    6   -5.1163    0.0000    0.0000   -3.6771    0.0000   -5.3037
      2       H    1   -0.2908   -0.0000    0.0000   -0.2476   -0.0000   -0.2714

  MBIS Octupoles: [e a0^3]
   Center  Symbol  Z      XXX       XXY       XXZ       XYY       XYZ       XZZ       YYY       YYZ       YZZ       ZZZ
      1       C    6   -0.0000    0.0000    0.9027   -0.0000   -0.0000   -0.0000    0.0000    1.0218   -0.0000    2.3652
      2       H    1   -0.0000    0.0000    0.0088    0.0000   -0.0000    0.0000   -0.0000   -0.0023    0.0000    0.0064

  MBIS Radial Moments:
   Center  Symbol  Z      [a0^2]      [a0^3]      [a0^4]
      1       C    6   14.097097   34.769469   101.879086
      2       H    1    0.809780    1.108898    1.821534

  MBIS Valence Widths: [a0]
   Center  Symbol  Z     Width
      1       C    6    0.516260
      2       H    1    0.284863

*** tstop() called on Mac.lan at Sun Aug 10 17:08:56 2025
Module time:
	user time   =       2.41 seconds =       0.04 minutes
	system time =       2.52 seconds =       0.04 minutes
	total time  =          1 seconds =       0.02 minutes
Total time:
	user time   =       9.77 seconds =       0.16 minutes
	system time =       4.77 seconds =       0.08 minutes
	total time  =          2 seconds =       0.03 minutes

    Psi4 stopped on: Sunday, 10 August 2025 05:08PM
    Psi4 wall time for execution: 0:00:01.42

*** Psi4 exiting successfully. Buy a developer a beer!
