                               Psi4 1.9.1 release

  ==> Input File <==

--------------------------------------------------------------------------
molecule {
0 1
N           0.000000           0.000000           0.000000
N           0.000000           0.000000           0.835199
}

set {
basis              cc-pvtz
reference          uks
maxiter            500
DAMPING_PERCENTAGE 1
E_CONVERGENCE      1.0E-8
D_CONVERGENCE      1.0E-8
DIIS_MAX_VECS      400
MBIS_MAXITER       8000
guess              read
}

E, wfn = energy('b3lyp', restart_file='last_wfn', return_wfn=True)
properties('b3lyp','MBIS_CHARGES', wfn=wfn)
wfn.to_file('last_wfn')
--------------------------------------------------------------------------

    Molecular point group: d2h
  Charge       = 0
  Multiplicity = 1
  Basis Set: CC-PVTZ
    Blend: CC-PVTZ
  Basis Set: (CC-PVTZ AUX)
    Blend: CC-PVTZ-JKFIT
  @DF-UKS Final Energy:  -109.20789934494287
    Total Energy =                       -109.2078993449428737
 Dipole X            :          0.0000000            0.0000000            0.0000000
 Dipole Y            :          0.0000000            0.0000000            0.0000000
 Dipole Z            :          0.0000000            0.0000000            0.0000000
 Magnitude           :                                                    0.0000000
    Molecular point group: d2h

    Geometry (in Angstrom), charge = 0, multiplicity = 1:

       Center              X                  Y                   Z               Mass
    ------------   -----------------  -----------------  -----------------  -----------------
         N            0.000000000000     0.000000000000    -0.417599500000    14.003074004430
         N            0.000000000000     0.000000000000     0.417599500000    14.003074004430

  Charge       = 0
  Multiplicity = 1
  Basis Set: CC-PVTZ
    Blend: CC-PVTZ
  Basis Set: (CC-PVTZ AUX)
    Blend: CC-PVTZ-JKFIT

    Orbital Energies [Eh]
    ---------------------

    Alpha Occupied:

       1Ag   -14.347959     1B1u  -14.325836     2Ag    -1.257356
       1B2u   -0.580157     1B3u   -0.580157     2B1u   -0.476864
       3Ag    -0.447301

    Alpha Virtual:

       1B3g    0.118878     1B2g    0.118878     3B1u    0.308292
       2B3u    0.349762     2B2u    0.349762     4Ag     0.382599
       5Ag     0.516969     2B3g    0.590069     2B2g    0.590069
       4B1u    0.827358     6Ag     0.828686     1B1g    0.828686
       3B2u    1.271469     3B3u    1.271469     5B1u    1.275096
       6B1u    1.366355     1Au     1.366355     7Ag     1.582345
       3B3g    1.700280     3B2g    1.700280     4B2u    2.630925
       4B3u    2.630925     7B1u    2.705143     8Ag     3.159843
       4B2g    3.364839     4B3g    3.364839     8B1u    3.429838
       5B3u    3.482542     5B2u    3.482542     9Ag     3.569656
       2B1g    3.569656     6B2u    3.922001     6B3u    3.922001
      10Ag     4.188038     5B2g    4.321292     5B3g    4.321292
       6B3g    4.325165     6B2g    4.325165     9B1u    4.433182
       2Au     4.433182    11Ag     4.451402     3B1g    4.451403
      12Ag     4.778970    10B1u    5.185819     7B3u    5.449926
       7B2u    5.449926    11B1u    5.663773     3Au     5.663773
      12B1u    6.935084     7B3g    7.560692     7B2g    7.560692
      13Ag     8.580910    13B1u   25.514241

    Beta Occupied:

       1Ag   -14.347959     1B1u  -14.325836     2Ag    -1.257356
       1B2u   -0.580157     1B3u   -0.580157     2B1u   -0.476864
       3Ag    -0.447301

    Beta Virtual:

       1B3g    0.118878     1B2g    0.118878     3B1u    0.308292
       2B3u    0.349762     2B2u    0.349762     4Ag     0.382599
       5Ag     0.516969     2B3g    0.590069     2B2g    0.590069
       4B1u    0.827358     6Ag     0.828686     1B1g    0.828686
       3B2u    1.271469     3B3u    1.271469     5B1u    1.275096
       6B1u    1.366355     1Au     1.366355     7Ag     1.582345
       3B3g    1.700280     3B2g    1.700280     4B2u    2.630925
       4B3u    2.630925     7B1u    2.705143     8Ag     3.159843
       4B2g    3.364839     4B3g    3.364839     8B1u    3.429838
       5B3u    3.482542     5B2u    3.482542     9Ag     3.569656
       2B1g    3.569656     6B2u    3.922001     6B3u    3.922001
      10Ag     4.188038     5B2g    4.321292     5B3g    4.321292
       6B3g    4.325165     6B2g    4.325165     9B1u    4.433182
       2Au     4.433182    11Ag     4.451402     3B1g    4.451403
      12Ag     4.778970    10B1u    5.185819     7B3u    5.449926
       7B2u    5.449926    11B1u    5.663773     3Au     5.663773
      12B1u    6.935084     7B3g    7.560692     7B2g    7.560692
      13Ag     8.580910    13B1u   25.514241

    Final Occupation by Irrep:
             Ag   B1g   B2g   B3g    Au   B1u   B2u   B3u
    DOCC [     3,    0,    0,    0,    0,    2,    1,    1 ]
    SOCC [     0,    0,    0,    0,    0,    0,    0,    0 ]
    NA   [     3,    0,    0,    0,    0,    2,    1,    1 ]
    NB   [     3,    0,    0,    0,    0,    2,    1,    1 ]

  @DF-UKS Final Energy:  -109.20789934494078

   => Energetics <=

    Nuclear Repulsion Energy =             31.0461139474903511
    One-Electron Energy =                -208.2479700729046499
    Two-Electron Energy =                  79.4477745184548780
    DFT Exchange-Correlation Energy =     -11.4538177379813462
    Empirical Dispersion Energy =           0.0000000000000000
    VV10 Nonlocal Energy =                  0.0000000000000000
    Total Energy =                       -109.2078993449407847

  UHF NO Occupations:
  HONO-2 :    3 Ag 2.0000000
  HONO-1 :    1B2u 2.0000000
  HONO-0 :    2B1u 2.0000000
  LUNO+0 :    4 Ag 0.0000000
  LUNO+1 :    3B1u 0.0000000
  LUNO+2 :    4B1u 0.0000000
  LUNO+3 :    5 Ag 0.0000000

Computation Completed

Properties will be evaluated at   0.000000,   0.000000,   0.000000 [a0]

Properties computed using the B3LYP density matrix

 Multipole Moments:

 ------------------------------------------------------------------------------------
     Multipole            Electronic (a.u.)      Nuclear  (a.u.)        Total (a.u.)
 ------------------------------------------------------------------------------------

 L = 1.  Multiply by 2.5417464519 to convert [e a0] to [Debye]
 Dipole X            :          0.0000000            0.0000000            0.0000000
 Dipole Y            :          0.0000000            0.0000000            0.0000000
 Dipole Z            :          0.0000000            0.0000000            0.0000000
 Magnitude           :                                                    0.0000000

 L = 2.  Multiply by 1.3450342976 to convert [e a0^2] to [Debye ang]
 Quadrupole XX       :         -6.8417925            0.0000000           -6.8417925
 Quadrupole XY       :          0.0000000            0.0000000            0.0000000
 Quadrupole XZ       :          0.0000000            0.0000000            0.0000000
 Quadrupole YY       :         -6.8417925            0.0000000           -6.8417925
 Quadrupole YZ       :          0.0000000            0.0000000            0.0000000
 Quadrupole ZZ       :        -17.2220245            8.7185791           -8.5034455
 Traceless XX        :          3.4600773           -2.9061930            0.5538843
 Traceless YY        :          3.4600773           -2.9061930            0.5538843
 Traceless ZZ        :         -6.9201547            5.8123860           -1.1077686

 ------------------------------------------------------------------------------------
  ==> Computing MBIS Charges <==

  Electron Count from Grid (Expected Number): 14.00000 (14.00000)
  Difference:  0.00000

  MBIS Charges: (a.u.)
   Center  Symbol  Z      Pop.       Charge
      1       N    7    7.000000   -0.000000
      2       N    7    7.000000   -0.000000

  MBIS Dipoles: [e a0]
   Center  Symbol  Z        X           Y           Z
      1       N    7    0.000000   -0.000000    0.119351
      2       N    7   -0.000000    0.000000   -0.119351

  MBIS Quadrupoles: [e a0^2]
   Center  Symbol  Z      XX        XY        XZ        YY        YZ        ZZ
      1       N    7   -3.4209   -0.0000    0.0000   -3.4209    0.0000   -4.0634
      2       N    7   -3.4209   -0.0000   -0.0000   -3.4209   -0.0000   -4.0634

  MBIS Octupoles: [e a0^3]
   Center  Symbol  Z      XXX       XXY       XXZ       XYY       XYZ       XZZ       YYY       YYZ       YZZ       ZZZ
      1       N    7    0.0000    0.0000    0.1941   -0.0000    0.0000    0.0000   -0.0000    0.1941   -0.0000    0.6092
      2       N    7    0.0000    0.0000   -0.1941    0.0000   -0.0000    0.0000    0.0000   -0.1941   -0.0000   -0.6092

  MBIS Radial Moments:
   Center  Symbol  Z      [a0^2]      [a0^3]      [a0^4]
      1       N    7   10.905143   21.823184   52.406335
      2       N    7   10.905143   21.823184   52.406335

  MBIS Valence Widths: [a0]
   Center  Symbol  Z     Width
      1       N    7    0.411822
      2       N    7    0.411822

*** tstop() called on Mac.lan at Sun Aug 10 17:06:04 2025
Module time:
	user time   =       3.84 seconds =       0.06 minutes
	system time =       2.13 seconds =       0.04 minutes
	total time  =          0 seconds =       0.00 minutes
Total time:
	user time   =      15.25 seconds =       0.25 minutes
	system time =       4.33 seconds =       0.07 minutes
	total time  =          2 seconds =       0.03 minutes

    Psi4 stopped on: Sunday, 10 August 2025 05:06PM
    Psi4 wall time for execution: 0:00:01.90

*** Psi4 exiting successfully. Buy a developer a beer!
