                               Psi4 1.9.1 release

  ==> Input File <==

--------------------------------------------------------------------------
molecule {
0 1
H           0.000000           0.000000           0.000000
H           0.000000           0.000000           0.527586
}

set {
basis              cc-pvtz
reference          uks
maxiter            500
DAMPING_PERCENTAGE 1
E_CONVERGENCE      1.0E-8
D_CONVERGENCE      1.0E-8
DIIS_MAX_VECS      400
MBIS_MAXITER       8000
guess              read
}

E, wfn = energy('b3lyp', restart_file='last_wfn', return_wfn=True)
properties('b3lyp','MBIS_CHARGES', wfn=wfn)
wfn.to_file('last_wfn')
--------------------------------------------------------------------------

    Molecular point group: d2h
  Charge       = 0
  Multiplicity = 1
  Basis Set: CC-PVTZ
    Blend: CC-PVTZ
  Basis Set: (CC-PVTZ AUX)
    Blend: CC-PVTZ-JKFIT
  @DF-UKS Final Energy:    -1.12799546549885
    Total Energy =                         -1.1279954654988493
 Dipole X            :          0.0000000            0.0000000            0.0000000
 Dipole Y            :          0.0000000            0.0000000            0.0000000
 Dipole Z            :          0.0000000            0.0000000            0.0000000
 Magnitude           :                                                    0.0000000
    Molecular point group: d2h

    Geometry (in Angstrom), charge = 0, multiplicity = 1:

       Center              X                  Y                   Z               Mass
    ------------   -----------------  -----------------  -----------------  -----------------
         H            0.000000000000     0.000000000000    -0.263793000000     1.007825032230
         H            0.000000000000     0.000000000000     0.263793000000     1.007825032230

  Charge       = 0
  Multiplicity = 1
  Basis Set: CC-PVTZ
    Blend: CC-PVTZ
  Basis Set: (CC-PVTZ AUX)
    Blend: CC-PVTZ-JKFIT

    Orbital Energies [Eh]
    ---------------------

    Alpha Occupied:

       1Ag    -0.485987

    Alpha Virtual:

       1B1u    0.093892     2Ag     0.180543     1B2u    0.535287
       1B3u    0.535287     2B1u    0.540513     3Ag     0.960543
       1B2g    0.964585     1B3g    0.964585     3B1u    1.405204
       4Ag     1.949828     4B1u    2.454949     5Ag     2.935681
       1B1g    2.935681     2B2u    3.158894     2B3u    3.158894
       2B2g    3.386716     2B3g    3.386716     6Ag     3.427129
       1Au     4.014942     5B1u    4.014942     3B3u    4.033873
       3B2u    4.033873     6B1u    4.856683     7Ag     6.314191
       3B2g    6.380039     3B3g    6.380039     7B1u    8.720709

    Beta Occupied:

       1Ag    -0.485987

    Beta Virtual:

       1B1u    0.093892     2Ag     0.180543     1B2u    0.535287
       1B3u    0.535287     2B1u    0.540513     3Ag     0.960543
       1B2g    0.964585     1B3g    0.964585     3B1u    1.405204
       4Ag     1.949828     4B1u    2.454949     5Ag     2.935681
       1B1g    2.935681     2B2u    3.158894     2B3u    3.158894
       2B2g    3.386716     2B3g    3.386716     6Ag     3.427129
       1Au     4.014942     5B1u    4.014942     3B3u    4.033873
       3B2u    4.033873     6B1u    4.856683     7Ag     6.314191
       3B2g    6.380039     3B3g    6.380039     7B1u    8.720709

    Final Occupation by Irrep:
             Ag   B1g   B2g   B3g    Au   B1u   B2u   B3u
    DOCC [     1,    0,    0,    0,    0,    0,    0,    0 ]
    SOCC [     0,    0,    0,    0,    0,    0,    0,    0 ]
    NA   [     1,    0,    0,    0,    0,    0,    0,    0 ]
    NB   [     1,    0,    0,    0,    0,    0,    0,    0 ]

  @DF-UKS Final Energy:    -1.12799546560445

   => Energetics <=

    Nuclear Repulsion Energy =              1.0030160214069366
    One-Electron Energy =                  -2.8276010441250419
    Two-Electron Energy =                   1.3363164433235941
    DFT Exchange-Correlation Energy =      -0.6397268862099386
    Empirical Dispersion Energy =           0.0000000000000000
    VV10 Nonlocal Energy =                  0.0000000000000000
    Total Energy =                         -1.1279954656044497

  UHF NO Occupations:
  HONO-0 :    1 Ag 2.0000000
  LUNO+0 :    2 Ag 0.0000000
  LUNO+1 :    3 Ag 0.0000000
  LUNO+2 :    4 Ag 0.0000000
  LUNO+3 :    5 Ag 0.0000000

Computation Completed

Properties will be evaluated at   0.000000,   0.000000,   0.000000 [a0]

Properties computed using the B3LYP density matrix

 Multipole Moments:

 ------------------------------------------------------------------------------------
     Multipole            Electronic (a.u.)      Nuclear  (a.u.)        Total (a.u.)
 ------------------------------------------------------------------------------------

 L = 1.  Multiply by 2.5417464519 to convert [e a0] to [Debye]
 Dipole X            :          0.0000000            0.0000000            0.0000000
 Dipole Y            :          0.0000000            0.0000000            0.0000000
 Dipole Z            :          0.0000000            0.0000000            0.0000000
 Magnitude           :                                                    0.0000000

 L = 2.  Multiply by 1.3450342976 to convert [e a0^2] to [Debye ang]
 Quadrupole XX       :         -1.3257796            0.0000000           -1.3257796
 Quadrupole XY       :          0.0000000            0.0000000            0.0000000
 Quadrupole XZ       :          0.0000000            0.0000000            0.0000000
 Quadrupole YY       :         -1.3257796            0.0000000           -1.3257796
 Quadrupole YZ       :          0.0000000            0.0000000            0.0000000
 Quadrupole ZZ       :         -1.6006314            0.4969976           -1.1036338
 Traceless XX        :          0.0916173           -0.1656659           -0.0740486
 Traceless YY        :          0.0916173           -0.1656659           -0.0740486
 Traceless ZZ        :         -0.1832346            0.3313317            0.1480972

 ------------------------------------------------------------------------------------
  ==> Computing MBIS Charges <==

  Electron Count from Grid (Expected Number):  2.00000 ( 2.00000)
  Difference:  0.00000

  MBIS Charges: (a.u.)
   Center  Symbol  Z      Pop.       Charge
      1       H    1    1.000000   -0.000000
      2       H    1    1.000000   -0.000000

  MBIS Dipoles: [e a0]
   Center  Symbol  Z        X           Y           Z
      1       H    1    0.000000   -0.000000   -0.046035
      2       H    1   -0.000000    0.000000    0.046035

  MBIS Quadrupoles: [e a0^2]
   Center  Symbol  Z      XX        XY        XZ        YY        YZ        ZZ
      1       H    1   -0.6629   -0.0000    0.0000   -0.6629    0.0000   -0.5977
      2       H    1   -0.6629   -0.0000    0.0000   -0.6629   -0.0000   -0.5977

  MBIS Octupoles: [e a0^3]
   Center  Symbol  Z      XXX       XXY       XXZ       XYY       XYZ       XZZ       YYY       YYZ       YZZ       ZZZ
      1       H    1    0.0000    0.0000   -0.0106    0.0000    0.0000    0.0000    0.0000   -0.0106   -0.0000    0.0002
      2       H    1    0.0000    0.0000    0.0106    0.0000   -0.0000    0.0000   -0.0000    0.0106    0.0000   -0.0002

  MBIS Radial Moments:
   Center  Symbol  Z      [a0^2]      [a0^3]      [a0^4]
      1       H    1    1.923493    3.998027   10.214497
      2       H    1    1.923493    3.998027   10.214497

  MBIS Valence Widths: [a0]
   Center  Symbol  Z     Width
      1       H    1    0.395976
      2       H    1    0.395976

*** tstop() called on Mac.lan at Sun Aug 10 16:59:28 2025
Module time:
	user time   =       0.45 seconds =       0.01 minutes
	system time =       1.32 seconds =       0.02 minutes
	total time  =          0 seconds =       0.00 minutes
Total time:
	user time   =       1.25 seconds =       0.02 minutes
	system time =       3.41 seconds =       0.06 minutes
	total time  =          1 seconds =       0.02 minutes

    Psi4 stopped on: Sunday, 10 August 2025 04:59PM
    Psi4 wall time for execution: 0:00:00.65

*** Psi4 exiting successfully. Buy a developer a beer!
