                               Psi4 1.9.1 release

  ==> Input File <==

--------------------------------------------------------------------------
molecule {
0 3
O           0.000000           0.000000           0.000000
O           0.000000           0.000000           1.720150
}

set {
basis              cc-pvtz
reference          uks
maxiter            500
DAMPING_PERCENTAGE 1
E_CONVERGENCE      1.0E-8
D_CONVERGENCE      1.0E-8
DIIS_MAX_VECS      400
MBIS_MAXITER       8000
guess              read
}

E, wfn = energy('b3lyp', restart_file='last_wfn', return_wfn=True)
properties('b3lyp','MBIS_CHARGES', wfn=wfn)
wfn.to_file('last_wfn')
--------------------------------------------------------------------------

    Molecular point group: d2h
  Charge       = 0
  Multiplicity = 3
  Basis Set: CC-PVTZ
    Blend: CC-PVTZ
  Basis Set: (CC-PVTZ AUX)
    Blend: CC-PVTZ-JKFIT
  @DF-UKS Final Energy:  -150.23884620704408
    Total Energy =                       -150.2388462070440767
 Dipole X            :          0.0000000            0.0000000            0.0000000
 Dipole Y            :          0.0000000            0.0000000            0.0000000
 Dipole Z            :          0.0000000            0.0000000            0.0000000
 Magnitude           :                                                    0.0000000
    Molecular point group: d2h

    Geometry (in Angstrom), charge = 0, multiplicity = 3:

       Center              X                  Y                   Z               Mass
    ------------   -----------------  -----------------  -----------------  -----------------
         O            0.000000000000     0.000000000000    -0.860075000000    15.994914619570
         O            0.000000000000     0.000000000000     0.860075000000    15.994914619570

  Charge       = 0
  Multiplicity = 3
  Basis Set: CC-PVTZ
    Blend: CC-PVTZ
  Basis Set: (CC-PVTZ AUX)
    Blend: CC-PVTZ-JKFIT

    Orbital Energies [Eh]
    ---------------------

    Alpha Occupied:

       1Ag   -19.322579     1B1u  -19.322550     2Ag    -1.082683
       2B1u   -0.957995     3Ag    -0.481394     1B3u   -0.475450
       1B2u   -0.475450     1B3g   -0.405651     1B2g   -0.405651

    Alpha Virtual:

       3B1u   -0.183464     4B1u    0.488131     2B2u    0.492152
       2B3u    0.492152     4Ag     0.592430     2B3g    0.600821
       2B2g    0.600821     5Ag     0.697588     5B1u    1.069102
       3B3u    1.193387     3B2u    1.193387     1B1g    1.328554
       6Ag     1.328555     7Ag     1.398176     6B1u    1.453629
       1Au     1.453629     3B2g    1.771181     3B3g    1.771181
       7B1u    2.266242     8Ag     3.364613     4B3u    3.425279
       4B2u    3.425279     4B2g    3.512099     4B3g    3.512099
       8B1u    3.798368     5B2u    4.795660     5B3u    4.795660
       9Ag     4.805697    10Ag     4.945629     2B1g    4.945632
       6B2u    5.005993     6B3u    5.005993     5B3g    5.016586
       5B2g    5.016586     2Au     5.070450     9B1u    5.070451
       6B2g    5.260592     6B3g    5.260592    10B1u    5.486136
       7B2u    5.977269     7B3u    5.977269     3B1g    5.988858
      11Ag     5.988871     3Au     6.079903    11B1u    6.079912
      12Ag     6.208946     7B2g    6.420857     7B3g    6.420857
      12B1u    7.029263    13Ag     7.091805    13B1u    7.837564

    Beta Occupied:

       1Ag   -19.293280     1B1u  -19.293208     2Ag    -1.010136
       2B1u   -0.869606     3Ag    -0.454021     1B3u   -0.362544
       1B2u   -0.362544

    Beta Virtual:

       1B3g   -0.223004     1B2g   -0.223004     3B1u   -0.148840
       4B1u    0.501328     2B2u    0.534735     2B3u    0.534735
       4Ag     0.608711     2B3g    0.638760     2B2g    0.638760
       5Ag     0.718091     5B1u    1.098979     3B3u    1.216586
       3B2u    1.216586     1B1g    1.378090     6Ag     1.378091
       7Ag     1.423044     1Au     1.509738     6B1u    1.509739
       3B2g    1.804735     3B3g    1.804735     7B1u    2.291437
       8Ag     3.382793     4B3u    3.498496     4B2u    3.498496
       4B2g    3.586965     4B3g    3.586965     8B1u    3.826428
       5B3u    4.832103     5B2u    4.832103     9Ag     4.840347
      10Ag     4.994675     2B1g    4.994678     6B2u    5.078510
       6B3u    5.078510     5B3g    5.089371     5B2g    5.089371
       9B1u    5.120618     2Au     5.120619     6B2g    5.299023
       6B3g    5.299023    10B1u    5.517901     7B2u    6.039130
       7B3u    6.039130     3B1g    6.095850    11Ag     6.095862
       3Au     6.185990    11B1u    6.185999    12Ag     6.238155
       7B3g    6.478427     7B2g    6.478427    12B1u    7.052228
      13Ag     7.153301    13B1u    7.896644

    Final Occupation by Irrep:
             Ag   B1g   B2g   B3g    Au   B1u   B2u   B3u
    DOCC [     3,    0,    0,    0,    0,    2,    1,    1 ]
    SOCC [     0,    0,    1,    1,    0,    0,    0,    0 ]
    NA   [     3,    0,    1,    1,    0,    2,    1,    1 ]
    NB   [     3,    0,    0,    0,    0,    2,    1,    1 ]

  @DF-UKS Final Energy:  -150.23884620688096

   => Energetics <=

    Nuclear Repulsion Energy =             19.6885977867511528
    One-Electron Energy =                -245.5225192616210279
    Two-Electron Energy =                  89.1643607714541133
    DFT Exchange-Correlation Energy =     -13.5692855034652240
    Empirical Dispersion Energy =           0.0000000000000000
    VV10 Nonlocal Energy =                  0.0000000000000000
    Total Energy =                       -150.2388462068809645

  UHF NO Occupations:
  HONO-2 :    1B2u 1.9975945
  HONO-1 :    1B3g 1.0000000
  HONO-0 :    1B2g 1.0000000
  LUNO+0 :    2B2u 0.0024055
  LUNO+1 :    2B3u 0.0024055
  LUNO+2 :    3B1u 0.0004556
  LUNO+3 :    4 Ag 0.0003359

Computation Completed

Properties will be evaluated at   0.000000,   0.000000,   0.000000 [a0]

Properties computed using the B3LYP density matrix

 Multipole Moments:

 ------------------------------------------------------------------------------------
     Multipole            Electronic (a.u.)      Nuclear  (a.u.)        Total (a.u.)
 ------------------------------------------------------------------------------------

 L = 1.  Multiply by 2.5417464519 to convert [e a0] to [Debye]
 Dipole X            :          0.0000000            0.0000000            0.0000000
 Dipole Y            :          0.0000000            0.0000000            0.0000000
 Dipole Z            :          0.0000000            0.0000000            0.0000000
 Magnitude           :                                                    0.0000000

 L = 2.  Multiply by 1.3450342976 to convert [e a0^2] to [Debye ang]
 Quadrupole XX       :         -7.8107740            0.0000000           -7.8107740
 Quadrupole XY       :          0.0000000            0.0000000            0.0000000
 Quadrupole XZ       :          0.0000000            0.0000000            0.0000000
 Quadrupole YY       :         -7.8107740            0.0000000           -7.8107740
 Quadrupole YZ       :          0.0000000            0.0000000            0.0000000
 Quadrupole ZZ       :        -49.2528131           42.2659238           -6.9868894
 Traceless XX        :         13.8140130          -14.0886413           -0.2746282
 Traceless YY        :         13.8140130          -14.0886413           -0.2746282
 Traceless ZZ        :        -27.6280261           28.1772825            0.5492564

 ------------------------------------------------------------------------------------
  ==> Computing MBIS Charges <==

  Electron Count from Grid (Expected Number): 16.00000 (16.00000)
  Difference: -0.00000

  MBIS Charges: (a.u.)
   Center  Symbol  Z      Pop.       Charge
      1       O    8    8.000000    0.000000
      2       O    8    8.000000    0.000000

  MBIS Dipoles: [e a0]
   Center  Symbol  Z        X           Y           Z
      1       O    8    0.000000   -0.000000   -0.055111
      2       O    8   -0.000000    0.000000    0.055111

  MBIS Quadrupoles: [e a0^2]
   Center  Symbol  Z      XX        XY        XZ        YY        YZ        ZZ
      1       O    8   -3.9054   -0.0000   -0.0000   -3.9054   -0.0000   -3.6726
      2       O    8   -3.9054   -0.0000    0.0000   -3.9054    0.0000   -3.6726

  MBIS Octupoles: [e a0^3]
   Center  Symbol  Z      XXX       XXY       XXZ       XYY       XYZ       XZZ       YYY       YYZ       YZZ       ZZZ
      1       O    8   -0.0000   -0.0000   -0.1135   -0.0000   -0.0000    0.0000   -0.0000   -0.1135   -0.0000   -0.4492
      2       O    8   -0.0000   -0.0000    0.1135    0.0000    0.0000    0.0000    0.0000    0.1135    0.0000    0.4492

  MBIS Radial Moments:
   Center  Symbol  Z      [a0^2]      [a0^3]      [a0^4]
      1       O    8   11.483362   21.855193   49.860764
      2       O    8   11.483362   21.855193   49.860764

  MBIS Valence Widths: [a0]
   Center  Symbol  Z     Width
      1       O    8    0.389089
      2       O    8    0.389089

*** tstop() called on Mac.lan at Sun Aug 10 17:02:28 2025
Module time:
	user time   =       3.89 seconds =       0.06 minutes
	system time =       2.14 seconds =       0.04 minutes
	total time  =          1 seconds =       0.02 minutes
Total time:
	user time   =      15.60 seconds =       0.26 minutes
	system time =       4.21 seconds =       0.07 minutes
	total time  =          2 seconds =       0.03 minutes

    Psi4 stopped on: Sunday, 10 August 2025 05:02PM
    Psi4 wall time for execution: 0:00:01.95

*** Psi4 exiting successfully. Buy a developer a beer!
