                               Psi4 1.9.1 release

  ==> Input File <==

--------------------------------------------------------------------------
molecule {
0 3
C           0.000000           0.000000           0.000000
C           0.000000           0.000000           1.857070
}

set {
basis              cc-pvtz
reference          uks
maxiter            500
DAMPING_PERCENTAGE 1
E_CONVERGENCE      1.0E-8
D_CONVERGENCE      1.0E-8
DIIS_MAX_VECS      400
MBIS_MAXITER       8000
guess              read
}

E, wfn = energy('b3lyp', restart_file='last_wfn', return_wfn=True)
properties('b3lyp','MBIS_CHARGES', wfn=wfn)
wfn.to_file('last_wfn')
--------------------------------------------------------------------------

    Molecular point group: d2h
  Charge       = 0
  Multiplicity = 3
  Basis Set: CC-PVTZ
    Blend: CC-PVTZ
  Basis Set: (CC-PVTZ AUX)
    Blend: CC-PVTZ-JKFIT
  @DF-UKS Final Energy:   -75.81324812943210
    Total Energy =                        -75.8132481294320968
 Dipole X            :          0.0000000            0.0000000            0.0000000
 Dipole Y            :          0.0000000            0.0000000            0.0000000
 Dipole Z            :          0.0000000            0.0000000            0.0000000
 Magnitude           :                                                    0.0000000
    Molecular point group: d2h

    Geometry (in Angstrom), charge = 0, multiplicity = 3:

       Center              X                  Y                   Z               Mass
    ------------   -----------------  -----------------  -----------------  -----------------
         C            0.000000000000     0.000000000000    -0.928535000000    12.000000000000
         C            0.000000000000     0.000000000000     0.928535000000    12.000000000000

  Charge       = 0
  Multiplicity = 3
  Basis Set: CC-PVTZ
    Blend: CC-PVTZ
  Basis Set: (CC-PVTZ AUX)
    Blend: CC-PVTZ-JKFIT

    Orbital Energies [Eh]
    ---------------------

    Alpha Occupied:

       1Ag   -10.350030     1B1u  -10.349906     2Ag    -0.688032
       2B1u   -0.526863     3Ag    -0.339530     1B3u   -0.300677
       1B2u   -0.272993

    Alpha Virtual:

       1B2g   -0.151912     1B3g   -0.124624     3B1u    0.009967
       4B1u    0.248810     2B3u    0.276764     4Ag     0.291159
       2B2u    0.291477     2B2g    0.334062     5Ag     0.336962
       2B3g    0.346392     3B3u    0.567895     1B1g    0.580643
       6Ag     0.580987     3B2u    0.587877     5B1u    0.604706
       1Au     0.745880     6B1u    0.746390     7Ag     0.948040
       3B2g    0.993435     3B3g    1.011028     7B1u    1.104534
       4B3u    1.836314     4B2u    1.857575     8Ag     1.875470
       4B2g    1.958125     4B3g    1.981894     8B1u    2.366090
       5B3u    2.387655     5B2u    2.410043     9Ag     2.410419
       2B1g    2.452253    10Ag     2.454882     6B3u    2.606564
       6B2u    2.606671     5B2g    2.667522     5B3g    2.667601
       9B1u    2.809299     2Au     2.809410     3B1g    2.868807
      11Ag     2.868830     6B2g    2.937957     6B3g    2.961003
       7B3u    2.966823    10B1u    2.982669     3Au     2.984426
       7B2u    2.989968    11B1u    3.027579    12Ag     3.339742
      12B1u    3.440193     7B2g    3.471995     7B3g    3.493101
      13Ag     3.931334    13B1u    5.075398

    Beta Occupied:

       1Ag   -10.335282     1B1u  -10.335247     2Ag    -0.626518
       2B1u   -0.452105     1B2u   -0.257598

    Beta Virtual:

       3Ag    -0.194102     1B3u   -0.173831     1B3g   -0.107109
       1B2g   -0.072462     3B1u    0.067727     4B1u    0.288065
       2B2u    0.297408     2B3u    0.308846     4Ag     0.321690
       2B3g    0.351380     2B2g    0.360224     5Ag     0.362069
       1B1g    0.604316     6Ag     0.606360     3B2u    0.614894
       3B3u    0.623975     5B1u    0.625879     1Au     0.767835
       6B1u    0.769775     7Ag     0.993847     3B3g    1.034176
       3B2g    1.038763     7B1u    1.145106     4B2u    1.872430
       4B3u    1.886133     8Ag     1.929512     4B3g    1.991886
       4B2g    2.004479     8B1u    2.412777     5B2u    2.439578
       5B3u    2.447889     9Ag     2.462330     2B1g    2.494616
      10Ag     2.497044     6B2u    2.635499     6B3u    2.636198
       5B3g    2.696296     5B2g    2.696985     2Au     2.841180
       9B1u    2.844253     3B1g    2.904226    11Ag     2.908479
       6B3g    2.994112     6B2g    3.009575     3Au     3.027595
      10B1u    3.030561     7B2u    3.031134     7B3u    3.046259
      11B1u    3.091228    12Ag     3.403632    12B1u    3.487082
       7B3g    3.531783     7B2g    3.539080    13Ag     3.965057
      13B1u    5.109995

    Final Occupation by Irrep:
             Ag   B1g   B2g   B3g    Au   B1u   B2u   B3u
    DOCC [     2,    0,    0,    0,    0,    2,    1,    0 ]
    SOCC [     1,    0,    0,    0,    0,    0,    0,    1 ]
    NA   [     3,    0,    0,    0,    0,    2,    1,    1 ]
    NB   [     2,    0,    0,    0,    0,    2,    1,    0 ]

  @DF-UKS Final Energy:   -75.81324812949256

   => Energetics <=

    Nuclear Repulsion Energy =             10.2582991401078036
    One-Electron Energy =                -121.2622979805804846
    Two-Electron Energy =                  43.5646337709367586
    DFT Exchange-Correlation Energy =      -8.3738830599566541
    Empirical Dispersion Energy =           0.0000000000000000
    VV10 Nonlocal Energy =                  0.0000000000000000
    Total Energy =                        -75.8132481294925640

  UHF NO Occupations:
  HONO-2 :    2B1u 1.9973571
  HONO-1 :    1B3u 1.0000000
  HONO-0 :    3 Ag 1.0000000
  LUNO+0 :    3B1u 0.0026429
  LUNO+1 :    4 Ag 0.0004638
  LUNO+2 :    2B2u 0.0001755
  LUNO+3 :    4B1u 0.0000006

Computation Completed

Properties will be evaluated at   0.000000,   0.000000,   0.000000 [a0]

Properties computed using the B3LYP density matrix

 Multipole Moments:

 ------------------------------------------------------------------------------------
     Multipole            Electronic (a.u.)      Nuclear  (a.u.)        Total (a.u.)
 ------------------------------------------------------------------------------------

 L = 1.  Multiply by 2.5417464519 to convert [e a0] to [Debye]
 Dipole X            :          0.0000000            0.0000000            0.0000000
 Dipole Y            :          0.0000000            0.0000000            0.0000000
 Dipole Z            :          0.0000000            0.0000000            0.0000000
 Magnitude           :                                                    0.0000000

 L = 2.  Multiply by 1.3450342976 to convert [e a0^2] to [Debye ang]
 Quadrupole XX       :         -8.7030838            0.0000000           -8.7030838
 Quadrupole XY       :          0.0000000            0.0000000            0.0000000
 Quadrupole XZ       :          0.0000000            0.0000000            0.0000000
 Quadrupole YY       :        -10.4061466            0.0000000          -10.4061466
 Quadrupole YZ       :          0.0000000            0.0000000            0.0000000
 Quadrupole ZZ       :        -45.3327732           36.9466901           -8.3860831
 Traceless XX        :         12.7775840          -12.3155634            0.4620207
 Traceless YY        :         11.0745213          -12.3155634           -1.2410421
 Traceless ZZ        :        -23.8521053           24.6311267            0.7790214

 ------------------------------------------------------------------------------------
  ==> Computing MBIS Charges <==

  Electron Count from Grid (Expected Number): 12.00000 (12.00000)
  Difference: -0.00000

  MBIS Charges: (a.u.)
   Center  Symbol  Z      Pop.       Charge
      1       C    6    6.000000    0.000000
      2       C    6    6.000000    0.000000

  MBIS Dipoles: [e a0]
   Center  Symbol  Z        X           Y           Z
      1       C    6    0.000000    0.000000   -0.173543
      2       C    6   -0.000000    0.000000    0.173543

  MBIS Quadrupoles: [e a0^2]
   Center  Symbol  Z      XX        XY        XZ        YY        YZ        ZZ
      1       C    6   -4.3515    0.0000    0.0000   -5.2031   -0.0000   -4.8021
      2       C    6   -4.3515    0.0000   -0.0000   -5.2031    0.0000   -4.8021

  MBIS Octupoles: [e a0^3]
   Center  Symbol  Z      XXX       XXY       XXZ       XYY       XYZ       XZZ       YYY       YYZ       YZZ       ZZZ
      1       C    6   -0.0000   -0.0000   -0.3366   -0.0000   -0.0000   -0.0000    0.0000   -0.6012    0.0000   -1.2156
      2       C    6   -0.0000   -0.0000    0.3366   -0.0000    0.0000   -0.0000    0.0000    0.6012    0.0000    1.2156

  MBIS Radial Moments:
   Center  Symbol  Z      [a0^2]      [a0^3]      [a0^4]
      1       C    6   14.356681   36.208968   108.688181
      2       C    6   14.356681   36.208968   108.688181

  MBIS Valence Widths: [a0]
   Center  Symbol  Z     Width
      1       C    6    0.531622
      2       C    6    0.531622

*** tstop() called on Mac.lan at Sun Aug 10 17:04:58 2025
Module time:
	user time   =       3.43 seconds =       0.06 minutes
	system time =       2.20 seconds =       0.04 minutes
	total time  =          1 seconds =       0.02 minutes
Total time:
	user time   =      15.98 seconds =       0.27 minutes
	system time =       4.67 seconds =       0.08 minutes
	total time  =          2 seconds =       0.03 minutes

    Psi4 stopped on: Sunday, 10 August 2025 05:04PM
    Psi4 wall time for execution: 0:00:02.01

*** Psi4 exiting successfully. Buy a developer a beer!
