                               Psi4 1.9.1 release

  ==> Input File <==

--------------------------------------------------------------------------
molecule {
0 1
O           0.000000           0.000000           0.000000
C           0.000000           0.000000           1.047991
}

set {
basis              cc-pvtz
reference          uks
maxiter            500
DAMPING_PERCENTAGE 1
E_CONVERGENCE      1.0E-8
D_CONVERGENCE      1.0E-8
DIIS_MAX_VECS      400
MBIS_MAXITER       8000
guess              read
}

E, wfn = energy('b3lyp', restart_file='last_wfn', return_wfn=True)
properties('b3lyp','MBIS_CHARGES', wfn=wfn)
wfn.to_file('last_wfn')
--------------------------------------------------------------------------

    Molecular point group: c2v
  Charge       = 0
  Multiplicity = 1
  Basis Set: CC-PVTZ
    Blend: CC-PVTZ
  Basis Set: (CC-PVTZ AUX)
    Blend: CC-PVTZ-JKFIT
  @DF-UKS Final Energy:  -113.34053321682309
    Total Energy =                       -113.3405332168230899
 Dipole X            :          0.0000000            0.0000000            0.0000000
 Dipole Y            :          0.0000000            0.0000000            0.0000000
 Dipole Z            :         -0.1522640           -0.0021585           -0.1544225
 Magnitude           :                                                    0.1544225
    Molecular point group: c2v

    Geometry (in Angstrom), charge = 0, multiplicity = 1:

       Center              X                  Y                   Z               Mass
    ------------   -----------------  -----------------  -----------------  -----------------
         O            0.000000000000     0.000000000000    -0.449220587771    15.994914619570
         C            0.000000000000     0.000000000000     0.598770412229    12.000000000000

  Charge       = 0
  Multiplicity = 1
  Basis Set: CC-PVTZ
    Blend: CC-PVTZ
  Basis Set: (CC-PVTZ AUX)
    Blend: CC-PVTZ-JKFIT

    Orbital Energies [Eh]
    ---------------------

    Alpha Occupied:

       1A1   -19.233983     2A1   -10.265060     3A1    -1.215818
       4A1    -0.582780     1B2    -0.511651     1B1    -0.511651
       5A1    -0.375405

    Alpha Virtual:

       2B2    -0.001630     2B1    -0.001630     6A1     0.159898
       3B1     0.287449     3B2     0.287449     7A1     0.303566
       8A1     0.535043     4B2     0.608738     4B1     0.608738
       9A1     0.633143     1A2     0.633143    10A1     0.690695
       5B2     0.887694     5B1     0.887694    11A1     1.130295
      12A1     1.422475     2A2     1.514382    13A1     1.514382
      14A1     1.904431     6B1     1.929058     6B2     1.929058
       7B2     1.946836     7B1     1.946836    15A1     2.533142
       8B2     2.632700     8B1     2.632700    16A1     2.849672
       3A2     2.849672    17A1     2.942994     4A2     2.942994
       9B1     2.976537     9B2     2.976537    18A1     3.069687
      10B1     3.294809    10B2     3.294809    19A1     3.478692
      11B1     4.138445    11B2     4.138445    20A1     4.699082
      12B2     5.077258    12B1     5.077258     5A2     5.590462
      21A1     5.590463    22A1     6.154673     6A2     6.228826
      23A1     6.228829    13B1     6.443020    13B2     6.443020
      14B1     6.718038    14B2     6.718038    24A1     6.830399
      25A1     7.404665    26A1    13.380878

    Beta Occupied:

       1A1   -19.233983     2A1   -10.265060     3A1    -1.215818
       4A1    -0.582780     1B2    -0.511651     1B1    -0.511651
       5A1    -0.375405

    Beta Virtual:

       2B2    -0.001630     2B1    -0.001630     6A1     0.159898
       3B1     0.287449     3B2     0.287449     7A1     0.303566
       8A1     0.535043     4B2     0.608738     4B1     0.608738
       9A1     0.633143     1A2     0.633143    10A1     0.690695
       5B2     0.887694     5B1     0.887694    11A1     1.130295
      12A1     1.422475     2A2     1.514382    13A1     1.514382
      14A1     1.904431     6B1     1.929058     6B2     1.929058
       7B2     1.946836     7B1     1.946836    15A1     2.533142
       8B2     2.632700     8B1     2.632700    16A1     2.849672
       3A2     2.849672    17A1     2.942994     4A2     2.942994
       9B1     2.976537     9B2     2.976537    18A1     3.069687
      10B1     3.294809    10B2     3.294809    19A1     3.478692
      11B1     4.138445    11B2     4.138445    20A1     4.699082
      12B2     5.077258    12B1     5.077258     5A2     5.590462
      21A1     5.590463    22A1     6.154673     6A2     6.228826
      23A1     6.228829    13B1     6.443020    13B2     6.443020
      14B1     6.718038    14B2     6.718038    24A1     6.830399
      25A1     7.404665    26A1    13.380878

    Final Occupation by Irrep:
             A1    A2    B1    B2
    DOCC [     5,    0,    1,    1 ]
    SOCC [     0,    0,    0,    0 ]
    NA   [     5,    0,    1,    1 ]
    NB   [     5,    0,    1,    1 ]

  @DF-UKS Final Energy:  -113.34053321685472

   => Energetics <=

    Nuclear Repulsion Energy =             24.2373322978537189
    One-Electron Energy =                -201.6320460559537366
    Two-Electron Energy =                  75.3624279631176393
    DFT Exchange-Correlation Energy =     -11.3082474218723483
    Empirical Dispersion Energy =           0.0000000000000000
    VV10 Nonlocal Energy =                  0.0000000000000000
    Total Energy =                       -113.3405332168547233

  UHF NO Occupations:
  HONO-2 :    3 A1 2.0000000
  HONO-1 :    4 A1 2.0000000
  HONO-0 :    5 A1 2.0000000
  LUNO+0 :    6 A1 0.0000000
  LUNO+1 :    7 A1 0.0000000
  LUNO+2 :    8 A1 0.0000000
  LUNO+3 :    9 A1 0.0000000

Computation Completed

Properties will be evaluated at   0.000000,   0.000000,   0.000000 [a0]

Properties computed using the B3LYP density matrix

 Multipole Moments:

 ------------------------------------------------------------------------------------
     Multipole            Electronic (a.u.)      Nuclear  (a.u.)        Total (a.u.)
 ------------------------------------------------------------------------------------

 L = 1.  Multiply by 2.5417464519 to convert [e a0] to [Debye]
 Dipole X            :          0.0000000            0.0000000            0.0000000
 Dipole Y            :          0.0000000            0.0000000            0.0000000
 Dipole Z            :         -0.1522640           -0.0021585           -0.1544225
 Magnitude           :                                                    0.1544225

 L = 2.  Multiply by 1.3450342976 to convert [e a0^2] to [Debye ang]
 Quadrupole XX       :         -7.4353513            0.0000000           -7.4353513
 Quadrupole XY       :          0.0000000            0.0000000            0.0000000
 Quadrupole XZ       :          0.0000000            0.0000000            0.0000000
 Quadrupole YY       :         -7.4353513            0.0000000           -7.4353513
 Quadrupole YZ       :          0.0000000            0.0000000            0.0000000
 Quadrupole ZZ       :        -22.5041743           13.4470201           -9.0571543
 Traceless XX        :          5.0229410           -4.4823400            0.5406010
 Traceless YY        :          5.0229410           -4.4823400            0.5406010
 Traceless ZZ        :        -10.0458820            8.9646800           -1.0812019

 ------------------------------------------------------------------------------------
  ==> Computing MBIS Charges <==

  Electron Count from Grid (Expected Number): 14.00000 (14.00000)
  Difference:  0.00000

  MBIS Charges: (a.u.)
   Center  Symbol  Z      Pop.       Charge
      1       O    8    8.089231   -0.089231
      2       C    6    5.910769    0.089231

  MBIS Dipoles: [e a0]
   Center  Symbol  Z        X           Y           Z
      1       O    8   -0.000000   -0.000000   -0.039419
      2       C    6    0.000000    0.000000   -0.291718

  MBIS Quadrupoles: [e a0^2]
   Center  Symbol  Z      XX        XY        XZ        YY        YZ        ZZ
      1       O    8   -3.4777    0.0000    0.0000   -3.4777    0.0000   -3.7321
      2       C    6   -3.9577   -0.0000    0.0000   -3.9577    0.0000   -4.7817

  MBIS Octupoles: [e a0^3]
   Center  Symbol  Z      XXX       XXY       XXZ       XYY       XYZ       XZZ       YYY       YYZ       YZZ       ZZZ
      1       O    8   -0.0000    0.0000    0.0308   -0.0000    0.0000   -0.0000   -0.0000    0.0308    0.0000    0.0144
      2       C    6   -0.0000    0.0000   -0.3204    0.0000    0.0000   -0.0000    0.0000   -0.3204    0.0000   -0.9605

  MBIS Radial Moments:
   Center  Symbol  Z      [a0^2]      [a0^3]      [a0^4]
      1       O    8   10.687502   19.252745   41.632574
      2       C    6   12.697056   30.284935   85.661739

  MBIS Valence Widths: [a0]
   Center  Symbol  Z     Width
      1       O    8    0.372573
      2       C    6    0.503067

*** tstop() called on Mac.lan at Sun Aug 10 17:16:42 2025
Module time:
	user time   =       4.17 seconds =       0.07 minutes
	system time =       2.37 seconds =       0.04 minutes
	total time  =          1 seconds =       0.02 minutes
Total time:
	user time   =      17.14 seconds =       0.29 minutes
	system time =       4.81 seconds =       0.08 minutes
	total time  =          2 seconds =       0.03 minutes

    Psi4 stopped on: Sunday, 10 August 2025 05:16PM
    Psi4 wall time for execution: 0:00:02.12

*** Psi4 exiting successfully. Buy a developer a beer!
