                               Psi4 1.9.1 release

  ==> Input File <==

--------------------------------------------------------------------------
molecule {
0 3
C           0.000000           0.000000           0.000000
C           0.000000           0.000000           0.900639
}

set {
basis              cc-pvtz
reference          uks
maxiter            500
DAMPING_PERCENTAGE 1
E_CONVERGENCE      1.0E-8
D_CONVERGENCE      1.0E-8
DIIS_MAX_VECS      400
MBIS_MAXITER       8000
guess              read
}

E, wfn = energy('b3lyp', restart_file='last_wfn', return_wfn=True)
properties('b3lyp','MBIS_CHARGES', wfn=wfn)
wfn.to_file('last_wfn')
--------------------------------------------------------------------------

    Molecular point group: d2h
  Charge       = 0
  Multiplicity = 3
  Basis Set: CC-PVTZ
    Blend: CC-PVTZ
  Basis Set: (CC-PVTZ AUX)
    Blend: CC-PVTZ-JKFIT
  @DF-UKS Final Energy:   -75.58633325457185
    Total Energy =                        -75.5863332545718549
 Dipole X            :          0.0000000            0.0000000            0.0000000
 Dipole Y            :          0.0000000            0.0000000            0.0000000
 Dipole Z            :          0.0000000            0.0000000            0.0000000
 Magnitude           :                                                    0.0000000
    Molecular point group: d2h

    Geometry (in Angstrom), charge = 0, multiplicity = 3:

       Center              X                  Y                   Z               Mass
    ------------   -----------------  -----------------  -----------------  -----------------
         C            0.000000000000     0.000000000000    -0.450319500000    12.000000000000
         C            0.000000000000     0.000000000000     0.450319500000    12.000000000000

  Charge       = 0
  Multiplicity = 3
  Basis Set: CC-PVTZ
    Blend: CC-PVTZ
  Basis Set: (CC-PVTZ AUX)
    Blend: CC-PVTZ-JKFIT

    Orbital Energies [Eh]
    ---------------------

    Alpha Occupied:

       1Ag   -10.198362     1B1u  -10.165539     2Ag    -0.830495
       1B2u   -0.404341     1B3u   -0.404341     2B1u   -0.402736
       3Ag    -0.376112

    Alpha Virtual:

       1B3g    0.105418     1B2g    0.105418     3B1u    0.180603
       4Ag     0.241565     2B2u    0.247018     2B3u    0.247018
       5Ag     0.367279     2B3g    0.438188     2B2g    0.438188
       6Ag     0.585019     1B1g    0.585019     4B1u    0.609919
       3B2u    0.869850     3B3u    0.869850     5B1u    0.899134
       1Au     0.940447     6B1u    0.940447     7Ag     1.061227
       3B3g    1.153303     3B2g    1.153303     4B3u    1.819328
       4B2u    1.819328     7B1u    2.078493     8Ag     2.251008
       4B2g    2.403719     4B3g    2.403719     5B2u    2.450721
       5B3u    2.450721     8B1u    2.495512     9Ag     2.515116
       2B1g    2.515116     6B2u    2.696152     6B3u    2.696152
      10Ag     2.830575     2Au     2.942995     9B1u    2.942995
       5B3g    2.986132     5B2g    2.986132     3B1g    3.058757
      11Ag     3.058758     6B3g    3.089269     6B2g    3.089269
      12Ag     3.456339    10B1u    3.588489     7B2u    3.941697
       7B3u    3.941697    11B1u    4.154104     3Au     4.154104
      12B1u    5.315939     7B2g    5.373533     7B3g    5.373533
      13Ag     6.195968    13B1u   18.723803

    Beta Occupied:

       1Ag   -10.174971     1B1u  -10.143175     2Ag    -0.788314
       1B3u   -0.377084     1B2u   -0.377084

    Beta Virtual:

       2B1u   -0.187589     3Ag    -0.148922     1B3g    0.144986
       1B2g    0.144986     3B1u    0.212284     2B2u    0.253773
       2B3u    0.253773     4Ag     0.277551     5Ag     0.421927
       2B3g    0.469935     2B2g    0.469935     1B1g    0.594203
       6Ag     0.594203     4B1u    0.657921     3B2u    0.922489
       3B3u    0.922489     1Au     0.962680     5B1u    0.962680
       6B1u    0.965465     7Ag     1.132395     3B3g    1.188200
       3B2g    1.188200     4B3u    1.834442     4B2u    1.834442
       7B1u    2.191091     8Ag     2.293919     4B2g    2.428371
       4B3g    2.428371     5B2u    2.462229     5B3u    2.462229
       2B1g    2.524946     9Ag     2.524946     8B1u    2.544014
       6B2u    2.790953     6B3u    2.790953    10Ag     2.980311
       2Au     3.003171     9B1u    3.003174     5B3g    3.085362
       5B2g    3.085362     6B3g    3.114128     6B2g    3.114128
       3B1g    3.118949    11Ag     3.118952    12Ag     3.527760
      10B1u    3.709045     7B2u    4.013429     7B3u    4.013429
       3Au     4.186475    11B1u    4.186480    12B1u    5.394870
       7B2g    5.439027     7B3g    5.439027    13Ag     6.245169
      13B1u   18.771776

    Final Occupation by Irrep:
             Ag   B1g   B2g   B3g    Au   B1u   B2u   B3u
    DOCC [     2,    0,    0,    0,    0,    1,    1,    1 ]
    SOCC [     1,    0,    0,    0,    0,    1,    0,    0 ]
    NA   [     3,    0,    0,    0,    0,    2,    1,    1 ]
    NB   [     2,    0,    0,    0,    0,    1,    1,    1 ]

  @DF-UKS Final Energy:   -75.58633325781611

   => Energetics <=

    Nuclear Repulsion Energy =             21.1520704567756894
    One-Electron Energy =                -142.3993320398842002
    Two-Electron Energy =                  54.6006937608963625
    DFT Exchange-Correlation Energy =      -8.9397654356039400
    Empirical Dispersion Energy =           0.0000000000000000
    VV10 Nonlocal Energy =                  0.0000000000000000
    Total Energy =                        -75.5863332578160936

  UHF NO Occupations:
  HONO-2 :    1B3u 1.9995907
  HONO-1 :    3 Ag 1.0000000
  HONO-0 :    2B1u 1.0000000
  LUNO+0 :    2B2u 0.0004093
  LUNO+1 :    2B3u 0.0004093
  LUNO+2 :    4 Ag 0.0003498
  LUNO+3 :    3B1u 0.0000009

Computation Completed

Properties will be evaluated at   0.000000,   0.000000,   0.000000 [a0]

Properties computed using the B3LYP density matrix

 Multipole Moments:

 ------------------------------------------------------------------------------------
     Multipole            Electronic (a.u.)      Nuclear  (a.u.)        Total (a.u.)
 ------------------------------------------------------------------------------------

 L = 1.  Multiply by 2.5417464519 to convert [e a0] to [Debye]
 Dipole X            :          0.0000000            0.0000000            0.0000000
 Dipole Y            :          0.0000000            0.0000000            0.0000000
 Dipole Z            :          0.0000000            0.0000000            0.0000000
 Magnitude           :                                                    0.0000000

 L = 2.  Multiply by 1.3450342976 to convert [e a0^2] to [Debye ang]
 Quadrupole XX       :         -7.8270899            0.0000000           -7.8270899
 Quadrupole XY       :          0.0000000            0.0000000            0.0000000
 Quadrupole XZ       :          0.0000000            0.0000000            0.0000000
 Quadrupole YY       :         -7.8270899            0.0000000           -7.8270899
 Quadrupole YZ       :          0.0000000            0.0000000            0.0000000
 Quadrupole ZZ       :        -15.6081927            8.6900142           -6.9181785
 Traceless XX        :          2.5937009           -2.8966714           -0.3029705
 Traceless YY        :          2.5937009           -2.8966714           -0.3029705
 Traceless ZZ        :         -5.1874019            5.7933428            0.6059409

 ------------------------------------------------------------------------------------
  ==> Computing MBIS Charges <==

  Electron Count from Grid (Expected Number): 12.00000 (12.00000)
  Difference:  0.00000

  MBIS Charges: (a.u.)
   Center  Symbol  Z      Pop.       Charge
      1       C    6    6.000000   -0.000000
      2       C    6    6.000000   -0.000000

  MBIS Dipoles: [e a0]
   Center  Symbol  Z        X           Y           Z
      1       C    6   -0.000000    0.000000   -0.317646
      2       C    6   -0.000000    0.000000    0.317646

  MBIS Quadrupoles: [e a0^2]
   Center  Symbol  Z      XX        XY        XZ        YY        YZ        ZZ
      1       C    6   -3.9135    0.0000    0.0000   -3.9135   -0.0000   -3.9997
      2       C    6   -3.9135    0.0000   -0.0000   -3.9135    0.0000   -3.9997

  MBIS Octupoles: [e a0^3]
   Center  Symbol  Z      XXX       XXY       XXZ       XYY       XYZ       XZZ       YYY       YYZ       YZZ       ZZZ
      1       C    6   -0.0000   -0.0000   -0.2025   -0.0000    0.0000   -0.0000    0.0000   -0.2025    0.0000   -0.0406
      2       C    6   -0.0000   -0.0000    0.2025   -0.0000   -0.0000   -0.0000    0.0000    0.2025    0.0000    0.0406

  MBIS Radial Moments:
   Center  Symbol  Z      [a0^2]      [a0^3]      [a0^4]
      1       C    6   11.826800   27.285648   75.825829
      2       C    6   11.826800   27.285648   75.825829

  MBIS Valence Widths: [a0]
   Center  Symbol  Z     Width
      1       C    6    0.476776
      2       C    6    0.476776

*** tstop() called on Mac.lan at Sun Aug 10 17:03:49 2025
Module time:
	user time   =       3.72 seconds =       0.06 minutes
	system time =       2.38 seconds =       0.04 minutes
	total time  =          1 seconds =       0.02 minutes
Total time:
	user time   =      15.54 seconds =       0.26 minutes
	system time =       4.57 seconds =       0.08 minutes
	total time  =          2 seconds =       0.03 minutes

    Psi4 stopped on: Sunday, 10 August 2025 05:03PM
    Psi4 wall time for execution: 0:00:01.98

*** Psi4 exiting successfully. Buy a developer a beer!
