                               Psi4 1.9.1 release

  ==> Input File <==

--------------------------------------------------------------------------
molecule {
0 1
H           0.000000           0.000000           0.000000
H           0.000000           0.000000           0.718608
}

set {
basis              cc-pvtz
reference          uks
maxiter            500
DAMPING_PERCENTAGE 1
E_CONVERGENCE      1.0E-8
D_CONVERGENCE      1.0E-8
DIIS_MAX_VECS      400
MBIS_MAXITER       8000
guess              read
}

E, wfn = energy('b3lyp', restart_file='last_wfn', return_wfn=True)
properties('b3lyp','MBIS_CHARGES', wfn=wfn)
wfn.to_file('last_wfn')
--------------------------------------------------------------------------

    Molecular point group: d2h
  Charge       = 0
  Multiplicity = 1
  Basis Set: CC-PVTZ
    Blend: CC-PVTZ
  Basis Set: (CC-PVTZ AUX)
    Blend: CC-PVTZ-JKFIT
  @DF-UKS Final Energy:    -1.17958619866449
    Total Energy =                         -1.1795861986644889
 Dipole X            :          0.0000000            0.0000000            0.0000000
 Dipole Y            :          0.0000000            0.0000000            0.0000000
 Dipole Z            :          0.0000000            0.0000000            0.0000000
 Magnitude           :                                                    0.0000000
    Molecular point group: d2h

    Geometry (in Angstrom), charge = 0, multiplicity = 1:

       Center              X                  Y                   Z               Mass
    ------------   -----------------  -----------------  -----------------  -----------------
         H            0.000000000000     0.000000000000    -0.359304000000     1.007825032230
         H            0.000000000000     0.000000000000     0.359304000000     1.007825032230

  Charge       = 0
  Multiplicity = 1
  Basis Set: CC-PVTZ
    Blend: CC-PVTZ
  Basis Set: (CC-PVTZ AUX)
    Blend: CC-PVTZ-JKFIT

    Orbital Energies [Eh]
    ---------------------

    Alpha Occupied:

       1Ag    -0.439195

    Alpha Virtual:

       1B1u    0.062777     2Ag     0.194029     2B1u    0.480051
       1B3u    0.513812     1B2u    0.513812     3Ag     0.918012
       1B3g    0.941723     1B2g    0.941723     3B1u    1.375041
       4B1u    2.039327     4Ag     2.080695     5Ag     2.884588
       1B1g    2.884588     2B3u    3.091068     2B2u    3.091068
       6Ag     3.366825     2B3g    3.581322     2B2g    3.581322
       5B1u    3.818528     1Au     3.818528     3B2u    3.831422
       3B3u    3.831422     6B1u    4.424409     3B3g    5.480116
       3B2g    5.480116     7Ag     5.547741     7B1u    6.650463

    Beta Occupied:

       1Ag    -0.439195

    Beta Virtual:

       1B1u    0.062777     2Ag     0.194029     2B1u    0.480051
       1B3u    0.513812     1B2u    0.513812     3Ag     0.918012
       1B3g    0.941723     1B2g    0.941723     3B1u    1.375041
       4B1u    2.039327     4Ag     2.080695     5Ag     2.884588
       1B1g    2.884588     2B3u    3.091068     2B2u    3.091068
       6Ag     3.366825     2B3g    3.581322     2B2g    3.581322
       5B1u    3.818528     1Au     3.818528     3B2u    3.831422
       3B3u    3.831422     6B1u    4.424409     3B3g    5.480116
       3B2g    5.480116     7Ag     5.547741     7B1u    6.650463

    Final Occupation by Irrep:
             Ag   B1g   B2g   B3g    Au   B1u   B2u   B3u
    DOCC [     1,    0,    0,    0,    0,    0,    0,    0 ]
    SOCC [     0,    0,    0,    0,    0,    0,    0,    0 ]
    NA   [     1,    0,    0,    0,    0,    0,    0,    0 ]
    NB   [     1,    0,    0,    0,    0,    0,    0,    0 ]

  @DF-UKS Final Energy:    -1.17958619880597

   => Energetics <=

    Nuclear Repulsion Energy =              0.7363920394290070
    One-Electron Energy =                  -2.5339772327179677
    Two-Electron Energy =                   1.1978816175380504
    DFT Exchange-Correlation Energy =      -0.5798826230550577
    Empirical Dispersion Energy =           0.0000000000000000
    VV10 Nonlocal Energy =                  0.0000000000000000
    Total Energy =                         -1.1795861988059677

  UHF NO Occupations:
  HONO-0 :    1 Ag 2.0000000
  LUNO+0 :    2 Ag 0.0000000
  LUNO+1 :    3 Ag 0.0000000
  LUNO+2 :    4 Ag 0.0000000
  LUNO+3 :    5 Ag 0.0000000

Computation Completed

Properties will be evaluated at   0.000000,   0.000000,   0.000000 [a0]

Properties computed using the B3LYP density matrix

 Multipole Moments:

 ------------------------------------------------------------------------------------
     Multipole            Electronic (a.u.)      Nuclear  (a.u.)        Total (a.u.)
 ------------------------------------------------------------------------------------

 L = 1.  Multiply by 2.5417464519 to convert [e a0] to [Debye]
 Dipole X            :          0.0000000            0.0000000            0.0000000
 Dipole Y            :          0.0000000            0.0000000            0.0000000
 Dipole Z            :          0.0000000            0.0000000            0.0000000
 Magnitude           :                                                    0.0000000

 L = 2.  Multiply by 1.3450342976 to convert [e a0^2] to [Debye ang]
 Quadrupole XX       :         -1.5399546            0.0000000           -1.5399546
 Quadrupole XY       :          0.0000000            0.0000000            0.0000000
 Quadrupole XZ       :          0.0000000            0.0000000            0.0000000
 Quadrupole YY       :         -1.5399546            0.0000000           -1.5399546
 Quadrupole YZ       :          0.0000000            0.0000000            0.0000000
 Quadrupole ZZ       :         -2.0637145            0.9220444           -1.1416701
 Traceless XX        :          0.1745866           -0.3073481           -0.1327615
 Traceless YY        :          0.1745866           -0.3073481           -0.1327615
 Traceless ZZ        :         -0.3491733            0.6146963            0.2655230

 ------------------------------------------------------------------------------------
  ==> Computing MBIS Charges <==

  Electron Count from Grid (Expected Number):  2.00000 ( 2.00000)
  Difference: -0.00000

  MBIS Charges: (a.u.)
   Center  Symbol  Z      Pop.       Charge
      1       H    1    1.000000    0.000000
      2       H    1    1.000000    0.000000

  MBIS Dipoles: [e a0]
   Center  Symbol  Z        X           Y           Z
      1       H    1   -0.000000   -0.000000   -0.081739
      2       H    1   -0.000000    0.000000    0.081739

  MBIS Quadrupoles: [e a0^2]
   Center  Symbol  Z      XX        XY        XZ        YY        YZ        ZZ
      1       H    1   -0.7700    0.0000   -0.0000   -0.7700   -0.0000   -0.6818
      2       H    1   -0.7700    0.0000   -0.0000   -0.7700   -0.0000   -0.6818

  MBIS Octupoles: [e a0^3]
   Center  Symbol  Z      XXX       XXY       XXZ       XYY       XYZ       XZZ       YYY       YYZ       YZZ       ZZZ
      1       H    1    0.0000   -0.0000   -0.0417    0.0000   -0.0000    0.0000    0.0000   -0.0417    0.0000   -0.0553
      2       H    1    0.0000   -0.0000    0.0417   -0.0000    0.0000    0.0000    0.0000    0.0417   -0.0000    0.0553

  MBIS Radial Moments:
   Center  Symbol  Z      [a0^2]      [a0^3]      [a0^4]
      1       H    1    2.221788    4.886140   13.084907
      2       H    1    2.221788    4.886140   13.084907

  MBIS Valence Widths: [a0]
   Center  Symbol  Z     Width
      1       H    1    0.427888
      2       H    1    0.427888

*** tstop() called on Mac.lan at Sun Aug 10 16:59:12 2025
Module time:
	user time   =       0.52 seconds =       0.01 minutes
	system time =       1.36 seconds =       0.02 minutes
	total time  =          1 seconds =       0.02 minutes
Total time:
	user time   =       1.52 seconds =       0.03 minutes
	system time =       3.48 seconds =       0.06 minutes
	total time  =          1 seconds =       0.02 minutes

    Psi4 stopped on: Sunday, 10 August 2025 04:59PM
    Psi4 wall time for execution: 0:00:00.77

*** Psi4 exiting successfully. Buy a developer a beer!
