                               Psi4 1.9.1 release

  ==> Input File <==

--------------------------------------------------------------------------
molecule {
0 2
C           0.000000           0.000000           0.000000
H           0.000000           0.000000           1.210844
}

set {
basis              cc-pvtz
reference          uks
maxiter            500
DAMPING_PERCENTAGE 1
E_CONVERGENCE      1.0E-8
D_CONVERGENCE      1.0E-8
DIIS_MAX_VECS      400
MBIS_MAXITER       8000
guess              read
}

E, wfn = energy('b3lyp', restart_file='last_wfn', return_wfn=True)
properties('b3lyp','MBIS_CHARGES', wfn=wfn)
wfn.to_file('last_wfn')
--------------------------------------------------------------------------

    Molecular point group: c2v
  Charge       = 0
  Multiplicity = 2
  Basis Set: CC-PVTZ
    Blend: CC-PVTZ
  Basis Set: (CC-PVTZ AUX)
    Blend: CC-PVTZ-JKFIT
  @DF-UKS Final Energy:   -38.49305158175245
    Total Energy =                        -38.4930515817524466
 Dipole X            :          0.0000000            0.0000000            0.0000000
 Dipole Y            :          0.0000000            0.0000000            0.0000000
 Dipole Z            :         -0.5342148            1.0471813            0.5129666
 Magnitude           :                                                    0.5129666
    Molecular point group: c2v

    Geometry (in Angstrom), charge = 0, multiplicity = 2:

       Center              X                  Y                   Z               Mass
    ------------   -----------------  -----------------  -----------------  -----------------
         C            0.000000000000     0.000000000000    -0.093814214928    12.000000000000
         H            0.000000000000     0.000000000000     1.117029785072     1.007825032230

  Charge       = 0
  Multiplicity = 2
  Basis Set: CC-PVTZ
    Blend: CC-PVTZ
  Basis Set: (CC-PVTZ AUX)
    Blend: CC-PVTZ-JKFIT

    Orbital Energies [Eh]
    ---------------------

    Alpha Occupied:

       1A1   -10.291314     2A1    -0.633481     3A1    -0.323442
       1B1    -0.260990

    Alpha Virtual:

       1B2    -0.148675     4A1     0.046519     5A1     0.278327
       2B1     0.290507     2B2     0.310203     6A1     0.335893
       7A1     0.442304     3B1     0.558707     3B2     0.561657
       1A2     0.654727     8A1     0.660466     9A1     0.935403
       4B1     1.005153     4B2     1.005668    10A1     1.290658
       5B1     1.920497     5B2     1.946827    11A1     2.101399
      12A1     2.259439     2A2     2.528677    13A1     2.532466
       6B1     2.587803     6B2     2.593503     7B1     2.640143
       7B2     2.642655    14A1     2.831203     3A2     2.897250
      15A1     2.911340     8B1     3.041768     8B2     3.052162
      16A1     3.129201     4A2     3.472473    17A1     3.473958
       9B2     3.756803     9B1     3.759222    18A1     4.165087
      10B1     4.467088    10B2     4.467649    19A1     4.550308
      20A1     7.244192

    Beta Occupied:

       1A1   -10.276441     2A1    -0.589379     3A1    -0.304842

    Beta Virtual:

       1B2    -0.132568     1B1    -0.086397     4A1     0.052906
       5A1     0.284336     2B2     0.317662     6A1     0.344977
       2B1     0.346393     7A1     0.459643     3B2     0.562769
       3B1     0.584327     8A1     0.697936     1A2     0.698249
       9A1     0.948535     4B2     1.007079     4B1     1.026768
      10A1     1.299104     5B2     1.958140     5B1     2.002070
      11A1     2.112117    12A1     2.271081     2A2     2.558992
      13A1     2.559170     6B2     2.596568     6B1     2.628495
       7B2     2.698798     7B1     2.699544    14A1     2.850306
       3A2     2.975418    15A1     2.978762     8B2     3.056971
       8B1     3.097553    16A1     3.145219     4A2     3.481721
      17A1     3.482065     9B2     3.752376     9B1     3.760584
      18A1     4.174593    10B2     4.467941    10B1     4.489277
      19A1     4.554224    20A1     7.260969

    Final Occupation by Irrep:
             A1    A2    B1    B2
    DOCC [     3,    0,    0,    0 ]
    SOCC [     0,    0,    1,    0 ]
    NA   [     3,    0,    1,    0 ]
    NB   [     3,    0,    0,    0 ]

  @DF-UKS Final Energy:   -38.49305158183134

   => Energetics <=

    Nuclear Repulsion Energy =              2.6221901946245758
    One-Electron Energy =                 -56.2825955267702867
    Two-Electron Energy =                  19.6925836361951525
    DFT Exchange-Correlation Energy =      -4.5252298858807736
    Empirical Dispersion Energy =           0.0000000000000000
    VV10 Nonlocal Energy =                  0.0000000000000000
    Total Energy =                        -38.4930515818313381

  UHF NO Occupations:
  HONO-2 :    2 A1 1.9997894
  HONO-1 :    3 A1 1.9986495
  HONO-0 :    1 B1 1.0000000
  LUNO+0 :    4 A1 0.0013505
  LUNO+1 :    5 A1 0.0002106
  LUNO+2 :    6 A1 0.0000007
  LUNO+3 :    7 A1 0.0000000

Computation Completed

Properties will be evaluated at   0.000000,   0.000000,   0.000000 [a0]

Properties computed using the B3LYP density matrix

 Multipole Moments:

 ------------------------------------------------------------------------------------
     Multipole            Electronic (a.u.)      Nuclear  (a.u.)        Total (a.u.)
 ------------------------------------------------------------------------------------

 L = 1.  Multiply by 2.5417464519 to convert [e a0] to [Debye]
 Dipole X            :          0.0000000            0.0000000            0.0000000
 Dipole Y            :          0.0000000            0.0000000            0.0000000
 Dipole Z            :         -0.5342148            1.0471813            0.5129666
 Magnitude           :                                                    0.5129666

 L = 2.  Multiply by 1.3450342976 to convert [e a0^2] to [Debye ang]
 Quadrupole XX       :         -5.7631156            0.0000000           -5.7631156
 Quadrupole XY       :          0.0000000            0.0000000            0.0000000
 Quadrupole XZ       :          0.0000000            0.0000000            0.0000000
 Quadrupole YY       :         -4.2731814            0.0000000           -4.2731814
 Quadrupole YZ       :          0.0000000            0.0000000            0.0000000
 Quadrupole ZZ       :        -10.2416209            4.6443919           -5.5972291
 Traceless XX        :          0.9961903           -1.5481306           -0.5519403
 Traceless YY        :          2.4861246           -1.5481306            0.9379940
 Traceless ZZ        :         -3.4823149            3.0962612           -0.3860537

 ------------------------------------------------------------------------------------
  ==> Computing MBIS Charges <==

  Electron Count from Grid (Expected Number):  7.00000 ( 7.00000)
  Difference:  0.00000

  MBIS Charges: (a.u.)
   Center  Symbol  Z      Pop.       Charge
      1       C    6    6.066534   -0.066534
      2       H    1    0.933466    0.066534

  MBIS Dipoles: [e a0]
   Center  Symbol  Z        X           Y           Z
      1       C    6   -0.000000    0.000000    0.306681
      2       H    1   -0.000000    0.000000    0.054045

  MBIS Quadrupoles: [e a0^2]
   Center  Symbol  Z      XX        XY        XZ        YY        YZ        ZZ
      1       C    6   -5.1241    0.0000   -0.0000   -3.7083   -0.0000   -5.3785
      2       H    1   -0.6390   -0.0000    0.0000   -0.5649    0.0000   -0.6325

  MBIS Octupoles: [e a0^3]
   Center  Symbol  Z      XXX       XXY       XXZ       XYY       XYZ       XZZ       YYY       YYZ       YZZ       ZZZ
      1       C    6    0.0000    0.0000    0.4011   -0.0000   -0.0000    0.0000    0.0000    0.4055    0.0000    0.7294
      2       H    1    0.0000    0.0000   -0.0004    0.0000   -0.0000   -0.0000    0.0000   -0.0484   -0.0000   -0.0300

  MBIS Radial Moments:
   Center  Symbol  Z      [a0^2]      [a0^3]      [a0^4]
      1       C    6   14.210916   35.481354   105.990562
      2       H    1    1.836408    3.699810    8.989544

  MBIS Valence Widths: [a0]
   Center  Symbol  Z     Width
      1       C    6    0.523838
      2       H    1    0.407253

*** tstop() called on Mac.lan at Sun Aug 10 17:09:09 2025
Module time:
	user time   =       4.07 seconds =       0.07 minutes
	system time =       1.82 seconds =       0.03 minutes
	total time  =          1 seconds =       0.02 minutes
Total time:
	user time   =      13.10 seconds =       0.22 minutes
	system time =       4.10 seconds =       0.07 minutes
	total time  =          2 seconds =       0.03 minutes

    Psi4 stopped on: Sunday, 10 August 2025 05:09PM
    Psi4 wall time for execution: 0:00:01.70

*** Psi4 exiting successfully. Buy a developer a beer!
