                               Psi4 1.9.1 release

  ==> Input File <==

--------------------------------------------------------------------------
molecule {
0 2
O           0.000000           0.000000           0.000000
H           0.000000           0.000000           0.620565
}

set {
basis              cc-pvtz
reference          uks
maxiter            500
DAMPING_PERCENTAGE 1
E_CONVERGENCE      1.0E-8
D_CONVERGENCE      1.0E-8
DIIS_MAX_VECS      400
MBIS_MAXITER       8000
guess              read
}

E, wfn = energy('b3lyp', restart_file='last_wfn', return_wfn=True)
properties('b3lyp','MBIS_CHARGES', wfn=wfn)
wfn.to_file('last_wfn')
--------------------------------------------------------------------------

    Molecular point group: c2v
  Charge       = 0
  Multiplicity = 2
  Basis Set: CC-PVTZ
    Blend: CC-PVTZ
  Basis Set: (CC-PVTZ AUX)
    Blend: CC-PVTZ-JKFIT
  @DF-UKS Final Energy:   -75.47769847302983
    Total Energy =                        -75.4776984730298324
 Dipole X            :          0.0000000            0.0000000            0.0000000
 Dipole Y            :          0.0000000            0.0000000            0.0000000
 Dipole Z            :          0.0368405            0.5471006            0.5839410
 Magnitude           :                                                    0.5839410
    Molecular point group: c2v

    Geometry (in Angstrom), charge = 0, multiplicity = 2:

       Center              X                  Y                   Z               Mass
    ------------   -----------------  -----------------  -----------------  -----------------
         O            0.000000000000     0.000000000000    -0.036783539237    15.994914619570
         H            0.000000000000     0.000000000000     0.583781460763     1.007825032230

  Charge       = 0
  Multiplicity = 2
  Basis Set: CC-PVTZ
    Blend: CC-PVTZ
  Basis Set: (CC-PVTZ AUX)
    Blend: CC-PVTZ-JKFIT

    Orbital Energies [Eh]
    ---------------------

    Alpha Occupied:

       1A1   -19.168884     2A1    -1.173116     3A1    -0.530305
       1B1    -0.440749     1B2    -0.367134

    Alpha Virtual:

       4A1     0.064871     5A1     0.468549     2B1     0.507047
       2B2     0.538760     6A1     0.628127     3B1     0.760361
       3B2     0.783347     7A1     0.795312     8A1     1.407688
       1A2     1.408438     9A1     1.704196     4B1     1.821182
       4B2     1.857659    10A1     2.046145    11A1     2.815579
       5B1     3.298432     5B2     3.330774     2A2     3.372516
      12A1     3.372581     6B1     3.618145     6B2     3.671144
      13A1     3.941608     7B1     4.532947     7B2     4.568353
      14A1     4.659276     8B1     5.049150     8B2     5.049421
      15A1     5.903868     3A2     5.915990    16A1     5.972805
       9B1     6.092747     4A2     6.107519    17A1     6.111029
       9B2     6.143752    18A1     7.803054    19A1     8.020473
      10B1     8.347576    10B2     8.397563    20A1    15.035218

    Beta Occupied:

       1A1   -19.143939     2A1    -1.109969     3A1    -0.496485
       1B2    -0.341434

    Beta Virtual:

       1B1    -0.191537     4A1     0.069428     5A1     0.475046
       2B2     0.547252     2B1     0.567952     6A1     0.637345
       3B2     0.786267     3B1     0.792616     7A1     0.816572
       1A2     1.461324     8A1     1.467010     9A1     1.724544
       4B2     1.863008     4B1     1.866934    10A1     2.071383
      11A1     2.824618     5B2     3.335994     5B1     3.346450
       2A2     3.391889    12A1     3.393178     6B2     3.686286
       6B1     3.705674    13A1     3.959145     7B2     4.573168
       7B1     4.578265    14A1     4.690216     8B2     5.119649
       8B1     5.122536     3A2     5.957822    15A1     5.961881
      16A1     6.001350     9B2     6.152042     9B1     6.157530
       4A2     6.200446    17A1     6.215881    18A1     7.823054
      19A1     8.037341    10B2     8.407434    10B1     8.418920
      20A1    15.063256

    Final Occupation by Irrep:
             A1    A2    B1    B2
    DOCC [     3,    0,    0,    1 ]
    SOCC [     0,    0,    1,    0 ]
    NA   [     3,    0,    1,    1 ]
    NB   [     3,    0,    0,    1 ]

  @DF-UKS Final Energy:   -75.47769847307370

   => Energetics <=

    Nuclear Repulsion Energy =              6.8218763310209267
    One-Electron Energy =                -116.5232000237879788
    Two-Electron Energy =                  41.6093539040093106
    DFT Exchange-Correlation Energy =      -7.3857286843159695
    Empirical Dispersion Energy =           0.0000000000000000
    VV10 Nonlocal Energy =                  0.0000000000000000
    Total Energy =                        -75.4776984730737013

  UHF NO Occupations:
  HONO-2 :    1 B2 1.9998600
  HONO-1 :    3 A1 1.9993892
  HONO-0 :    1 B1 1.0000000
  LUNO+0 :    4 A1 0.0006108
  LUNO+1 :    2 B2 0.0001400
  LUNO+2 :    5 A1 0.0000827
  LUNO+3 :    6 A1 0.0000006

Computation Completed

Properties will be evaluated at   0.000000,   0.000000,   0.000000 [a0]

Properties computed using the B3LYP density matrix

 Multipole Moments:

 ------------------------------------------------------------------------------------
     Multipole            Electronic (a.u.)      Nuclear  (a.u.)        Total (a.u.)
 ------------------------------------------------------------------------------------

 L = 1.  Multiply by 2.5417464519 to convert [e a0] to [Debye]
 Dipole X            :          0.0000000            0.0000000            0.0000000
 Dipole Y            :          0.0000000            0.0000000            0.0000000
 Dipole Z            :          0.0368405            0.5471006            0.5839410
 Magnitude           :                                                    0.5839410

 L = 2.  Multiply by 1.3450342976 to convert [e a0^2] to [Debye ang]
 Quadrupole XX       :         -3.7301278            0.0000000           -3.7301278
 Quadrupole XY       :          0.0000000            0.0000000            0.0000000
 Quadrupole XZ       :          0.0000000            0.0000000            0.0000000
 Quadrupole YY       :         -4.5964392            0.0000000           -4.5964392
 Quadrupole YZ       :          0.0000000            0.0000000            0.0000000
 Quadrupole ZZ       :         -4.8906856            1.2556758           -3.6350098
 Traceless XX        :          0.6756231           -0.4185586            0.2570645
 Traceless YY        :         -0.1906883           -0.4185586           -0.6092469
 Traceless ZZ        :         -0.4849347            0.8371172            0.3521824

 ------------------------------------------------------------------------------------
  ==> Computing MBIS Charges <==

  Electron Count from Grid (Expected Number):  9.00000 ( 9.00000)
  Difference:  0.00000

  MBIS Charges: (a.u.)
   Center  Symbol  Z      Pop.       Charge
      1       O    8    8.440920   -0.440920
      2       H    1    0.559080    0.440920

  MBIS Dipoles: [e a0]
   Center  Symbol  Z        X           Y           Z
      1       O    8   -0.000000   -0.000000    0.048874
      2       H    1   -0.000000   -0.000000    0.018001

  MBIS Quadrupoles: [e a0^2]
   Center  Symbol  Z      XX        XY        XZ        YY        YZ        ZZ
      1       O    8   -3.6051   -0.0000    0.0000   -4.4553   -0.0000   -4.0721
      2       H    1   -0.1251   -0.0000    0.0000   -0.1411   -0.0000   -0.1304

  MBIS Octupoles: [e a0^3]
   Center  Symbol  Z      XXX       XXY       XXZ       XYY       XYZ       XZZ       YYY       YYZ       YZZ       ZZZ
      1       O    8   -0.0000   -0.0000    0.1445   -0.0000   -0.0000    0.0000   -0.0000    0.0895   -0.0000    0.1622
      2       H    1    0.0000   -0.0000    0.0017    0.0000   -0.0000    0.0000   -0.0000    0.0040   -0.0000    0.0055

  MBIS Radial Moments:
   Center  Symbol  Z      [a0^2]      [a0^3]      [a0^4]
      1       O    8   12.132421   22.912955   51.689986
      2       H    1    0.396557    0.478066    0.693767

  MBIS Valence Widths: [a0]
   Center  Symbol  Z     Width
      1       O    8    0.386079
      2       H    1    0.244837

*** tstop() called on Mac.lan at Sun Aug 10 17:11:05 2025
Module time:
	user time   =       2.71 seconds =       0.05 minutes
	system time =       3.24 seconds =       0.05 minutes
	total time  =          1 seconds =       0.02 minutes
Total time:
	user time   =      10.63 seconds =       0.18 minutes
	system time =       5.59 seconds =       0.09 minutes
	total time  =          2 seconds =       0.03 minutes

    Psi4 stopped on: Sunday, 10 August 2025 05:11PM
    Psi4 wall time for execution: 0:00:01.59

*** Psi4 exiting successfully. Buy a developer a beer!
