                               Psi4 1.9.1 release

  ==> Input File <==

--------------------------------------------------------------------------
molecule {
0 2
O           0.000000           0.000000           0.000000
H           0.000000           0.000000           1.372404
}

set {
basis              cc-pvtz
reference          uks
maxiter            500
DAMPING_PERCENTAGE 1
E_CONVERGENCE      1.0E-8
D_CONVERGENCE      1.0E-8
DIIS_MAX_VECS      400
MBIS_MAXITER       8000
guess              read
}

E, wfn = energy('b3lyp', restart_file='last_wfn', return_wfn=True)
properties('b3lyp','MBIS_CHARGES', wfn=wfn)
wfn.to_file('last_wfn')
--------------------------------------------------------------------------

    Molecular point group: c2v
  Charge       = 0
  Multiplicity = 2
  Basis Set: CC-PVTZ
    Blend: CC-PVTZ
  Basis Set: (CC-PVTZ AUX)
    Blend: CC-PVTZ-JKFIT
  @DF-UKS Final Energy:   -75.70097161346278
    Total Energy =                        -75.7009716134627695
 Dipole X            :          0.0000000            0.0000000            0.0000000
 Dipole Y            :          0.0000000            0.0000000            0.0000000
 Dipole Z            :         -0.5066164            1.2099345            0.7033180
 Magnitude           :                                                    0.7033180
    Molecular point group: c2v

    Geometry (in Angstrom), charge = 0, multiplicity = 2:

       Center              X                  Y                   Z               Mass
    ------------   -----------------  -----------------  -----------------  -----------------
         O            0.000000000000     0.000000000000    -0.081348249391    15.994914619570
         H            0.000000000000     0.000000000000     1.291055750609     1.007825032230

  Charge       = 0
  Multiplicity = 2
  Basis Set: CC-PVTZ
    Blend: CC-PVTZ
  Basis Set: (CC-PVTZ AUX)
    Blend: CC-PVTZ-JKFIT

    Orbital Energies [Eh]
    ---------------------

    Alpha Occupied:

       1A1   -19.217290     2A1    -0.959941     3A1    -0.423283
       1B1    -0.408610     1B2    -0.334784

    Alpha Virtual:

       4A1    -0.074080     5A1     0.253490     2B1     0.499181
       2B2     0.526874     6A1     0.568532     3B1     0.672781
       3B2     0.689728     7A1     0.822503     8A1     1.050075
       1A2     1.436033     9A1     1.436828     4B1     1.540157
       4B2     1.577945    10A1     1.986819    11A1     2.345114
      12A1     3.145503     2A2     3.152025    13A1     3.152126
       5B1     3.211157     5B2     3.232457     6B1     3.596993
       6B2     3.626048     7B1     3.642732     7B2     3.674000
      14A1     3.797561    15A1     4.625184     8B1     5.077592
       8B2     5.077916     3A2     5.100177    16A1     5.101524
       9B1     5.362318     9B2     5.411075    17A1     5.797923
      18A1     6.119418     4A2     6.119744    10B1     6.304364
      10B2     6.363184    19A1     6.937169    20A1     7.586100

    Beta Occupied:

       1A1   -19.189474     2A1    -0.877499     3A1    -0.401530
       1B2    -0.307323

    Beta Virtual:

       1B1    -0.157381     4A1    -0.066540     5A1     0.247235
       2B2     0.529825     2B1     0.546960     6A1     0.583555
       3B2     0.688329     3B1     0.697244     7A1     0.840333
       8A1     1.066974     1A2     1.488848     9A1     1.494976
       4B2     1.586011     4B1     1.593580    10A1     2.003084
      11A1     2.328667     2A2     3.137034    12A1     3.137167
      13A1     3.154645     5B2     3.226925     5B1     3.232384
       6B2     3.608395     6B1     3.608563     7B2     3.686117
       7B1     3.712313    14A1     3.792286    15A1     4.644053
       8B2     5.148453     3A2     5.150434     8B1     5.151460
      16A1     5.155815     9B2     5.423643     9B1     5.429907
      17A1     5.829738     4A2     6.213758    18A1     6.228578
      10B2     6.383310    10B1     6.407079    19A1     6.978597
      20A1     7.634863

    Final Occupation by Irrep:
             A1    A2    B1    B2
    DOCC [     3,    0,    0,    1 ]
    SOCC [     0,    0,    1,    0 ]
    NA   [     3,    0,    1,    1 ]
    NB   [     3,    0,    0,    1 ]

  @DF-UKS Final Energy:   -75.70097161325786

   => Energetics <=

    Nuclear Repulsion Energy =              3.0846730885074662
    One-Electron Energy =                -110.3524112368603767
    Two-Electron Energy =                  38.6569001883749195
    DFT Exchange-Correlation Energy =      -7.0901336532798842
    Empirical Dispersion Energy =           0.0000000000000000
    VV10 Nonlocal Energy =                  0.0000000000000000
    Total Energy =                        -75.7009716132578632

  UHF NO Occupations:
  HONO-2 :    2 A1 1.9994566
  HONO-1 :    3 A1 1.9945673
  HONO-0 :    1 B1 1.0000000
  LUNO+0 :    4 A1 0.0054327
  LUNO+1 :    5 A1 0.0005434
  LUNO+2 :    2 B2 0.0001854
  LUNO+3 :    6 A1 0.0000006

Computation Completed

Properties will be evaluated at   0.000000,   0.000000,   0.000000 [a0]

Properties computed using the B3LYP density matrix

 Multipole Moments:

 ------------------------------------------------------------------------------------
     Multipole            Electronic (a.u.)      Nuclear  (a.u.)        Total (a.u.)
 ------------------------------------------------------------------------------------

 L = 1.  Multiply by 2.5417464519 to convert [e a0] to [Debye]
 Dipole X            :          0.0000000            0.0000000            0.0000000
 Dipole Y            :          0.0000000            0.0000000            0.0000000
 Dipole Z            :         -0.5066164            1.2099345            0.7033180
 Magnitude           :                                                    0.7033180

 L = 2.  Multiply by 1.3450342976 to convert [e a0^2] to [Debye ang]
 Quadrupole XX       :         -4.2693976            0.0000000           -4.2693976
 Quadrupole XY       :          0.0000000            0.0000000            0.0000000
 Quadrupole XZ       :          0.0000000            0.0000000            0.0000000
 Quadrupole YY       :         -5.1672354            0.0000000           -5.1672354
 Quadrupole YZ       :          0.0000000            0.0000000            0.0000000
 Quadrupole ZZ       :         -8.7622272            6.1413932           -2.6208340
 Traceless XX        :          1.7968891           -2.0471311           -0.2502420
 Traceless YY        :          0.8990513           -2.0471311           -1.1480797
 Traceless ZZ        :         -2.6959404            4.0942621            1.3983217

 ------------------------------------------------------------------------------------
  ==> Computing MBIS Charges <==

  Electron Count from Grid (Expected Number):  9.00000 ( 9.00000)
  Difference: -0.00000

  MBIS Charges: (a.u.)
   Center  Symbol  Z      Pop.       Charge
      1       O    8    8.294745   -0.294745
      2       H    1    0.705255    0.294745

  MBIS Dipoles: [e a0]
   Center  Symbol  Z        X           Y           Z
      1       O    8   -0.000000   -0.000000   -0.125971
      2       H    1   -0.000000   -0.000000    0.064878

  MBIS Quadrupoles: [e a0^2]
   Center  Symbol  Z      XX        XY        XZ        YY        YZ        ZZ
      1       O    8   -3.7378    0.0000   -0.0000   -4.5957   -0.0000   -4.2108
      2       H    1   -0.5316    0.0000   -0.0000   -0.5715   -0.0000   -0.5128

  MBIS Octupoles: [e a0^3]
   Center  Symbol  Z      XXX       XXY       XXZ       XYY       XYZ       XZZ       YYY       YYZ       YZZ       ZZZ
      1       O    8   -0.0000   -0.0000   -0.1698   -0.0000    0.0000    0.0000    0.0000   -0.1516    0.0000   -0.6409
      2       H    1    0.0000    0.0000    0.0134    0.0000    0.0000   -0.0000   -0.0000    0.0520   -0.0000    0.0911

  MBIS Radial Moments:
   Center  Symbol  Z      [a0^2]      [a0^3]      [a0^4]
      1       O    8   12.544271   24.355039   56.502256
      2       H    1    1.615953    3.497283    9.048120

  MBIS Valence Widths: [a0]
   Center  Symbol  Z     Width
      1       O    8    0.398030
      2       H    1    0.439059

*** tstop() called on Mac.lan at Sun Aug 10 17:11:55 2025
Module time:
	user time   =       2.69 seconds =       0.04 minutes
	system time =       1.89 seconds =       0.03 minutes
	total time  =          0 seconds =       0.00 minutes
Total time:
	user time   =      14.13 seconds =       0.24 minutes
	system time =       4.26 seconds =       0.07 minutes
	total time  =          2 seconds =       0.03 minutes

    Psi4 stopped on: Sunday, 10 August 2025 05:11PM
    Psi4 wall time for execution: 0:00:01.79

*** Psi4 exiting successfully. Buy a developer a beer!
