                               Psi4 1.9.1 release

  ==> Input File <==

--------------------------------------------------------------------------
molecule {
0 2
N           0.000000           0.000000           0.000000
C           0.000000           0.000000           1.573316
}

set {
basis              cc-pvtz
reference          uks
maxiter            500
DAMPING_PERCENTAGE 1
E_CONVERGENCE      1.0E-8
D_CONVERGENCE      1.0E-8
DIIS_MAX_VECS      400
MBIS_MAXITER       8000
guess              read
}

E, wfn = energy('b3lyp', restart_file='last_wfn', return_wfn=True)
properties('b3lyp','MBIS_CHARGES', wfn=wfn)
wfn.to_file('last_wfn')
--------------------------------------------------------------------------

    Molecular point group: c2v
  Charge       = 0
  Multiplicity = 2
  Basis Set: CC-PVTZ
    Blend: CC-PVTZ
  Basis Set: (CC-PVTZ AUX)
    Blend: CC-PVTZ-JKFIT
  @DF-UKS Final Energy:   -92.59852134621585
    Total Energy =                        -92.5985213462158470
 Dipole X            :          0.0000000            0.0000000            0.0000000
 Dipole Y            :          0.0000000            0.0000000            0.0000000
 Dipole Z            :          0.4009238            0.0021089            0.4030326
 Magnitude           :                                                    0.4030326
    Molecular point group: c2v

    Geometry (in Angstrom), charge = 0, multiplicity = 2:

       Center              X                  Y                   Z               Mass
    ------------   -----------------  -----------------  -----------------  -----------------
         N            0.000000000000     0.000000000000    -0.726060003397    14.003074004430
         C            0.000000000000     0.000000000000     0.847255996603    12.000000000000

  Charge       = 0
  Multiplicity = 2
  Basis Set: CC-PVTZ
    Blend: CC-PVTZ
  Basis Set: (CC-PVTZ AUX)
    Blend: CC-PVTZ-JKFIT

    Orbital Energies [Eh]
    ---------------------

    Alpha Occupied:

       1A1   -14.454691     2A1   -10.378777     3A1    -0.841078
       4A1    -0.571023     5A1    -0.403168     1B2    -0.332332
       1B1    -0.332332

    Alpha Virtual:

       2B1    -0.127256     2B2    -0.127256     6A1     0.081628
       7A1     0.264010     3B1     0.292596     3B2     0.292596
       8A1     0.312469     9A1     0.433254     4B1     0.495328
       4B2     0.495328     1A2     0.630385    10A1     0.630385
       5B1     0.696468     5B2     0.696468    11A1     0.861276
      12A1     1.013016    13A1     1.074581     2A2     1.074581
       6B2     1.336758     6B1     1.336758    14A1     1.521124
       7B1     1.931210     7B2     1.931210    15A1     2.143256
       8B2     2.580680     8B1     2.580680     3A2     2.609849
      16A1     2.609850     9B1     2.626331     9B2     2.626331
      17A1     2.700283    18A1     2.886843     4A2     2.886843
      10B2     2.903880    10B1     2.903880    19A1     3.097824
      11B1     3.125100    11B2     3.125100    20A1     3.171411
      12B2     3.867845    12B1     3.867845    21A1     3.974582
       5A2     3.974583    22A1     4.047492    13B1     4.319026
      13B2     4.319026    23A1     4.431209     6A2     4.431213
      24A1     4.653082    14B2     4.807555    14B1     4.807555
      25A1     5.486604    26A1     7.008603

    Beta Occupied:

       1A1   -14.446042     2A1   -10.368506     3A1    -0.810289
       4A1    -0.509835     1B2    -0.325095     1B1    -0.325095

    Beta Virtual:

       5A1    -0.249259     2B1    -0.112580     2B2    -0.112580
       6A1     0.115544     3B1     0.298307     3B2     0.298307
       7A1     0.301791     8A1     0.336462     9A1     0.459727
       4B1     0.497034     4B2     0.497034    10A1     0.636292
       1A2     0.636292     5B1     0.723237     5B2     0.723237
      11A1     0.872602    12A1     1.050583    13A1     1.074688
       2A2     1.074688     6B2     1.361944     6B1     1.361944
      14A1     1.555211     7B1     1.941595     7B2     1.941595
      15A1     2.189310     8B2     2.603684     8B1     2.603684
       3A2     2.632878    16A1     2.632878     9B1     2.633677
       9B2     2.633677    17A1     2.747571    18A1     2.900014
       4A2     2.900015    10B2     2.925535    10B1     2.925535
      19A1     3.158203    11B1     3.165227    11B2     3.165227
      20A1     3.210286    12B2     3.863194    12B1     3.863194
      21A1     3.990364     5A2     3.990365    22A1     4.082698
      13B1     4.351283    13B2     4.351283    23A1     4.430982
       6A2     4.430986    24A1     4.716517    14B2     4.850481
      14B1     4.850481    25A1     5.515706    26A1     7.030325

    Final Occupation by Irrep:
             A1    A2    B1    B2
    DOCC [     4,    0,    1,    1 ]
    SOCC [     1,    0,    0,    0 ]
    NA   [     5,    0,    1,    1 ]
    NB   [     4,    0,    1,    1 ]

  @DF-UKS Final Energy:   -92.59852134425472

   => Energetics <=

    Nuclear Repulsion Energy =             14.1264964242021325
    One-Electron Energy =                -152.4198086036342943
    Two-Electron Energy =                  55.3081399097774948
    DFT Exchange-Correlation Energy =      -9.6133490746000607
    Empirical Dispersion Energy =           0.0000000000000000
    VV10 Nonlocal Energy =                  0.0000000000000000
    Total Energy =                        -92.5985213442547206

  UHF NO Occupations:
  HONO-2 :    1 B2 1.9989341
  HONO-1 :    4 A1 1.9963305
  HONO-0 :    5 A1 1.0000000
  LUNO+0 :    6 A1 0.0036695
  LUNO+1 :    2 B2 0.0010659
  LUNO+2 :    2 B1 0.0010659
  LUNO+3 :    7 A1 0.0002622

Computation Completed

Properties will be evaluated at   0.000000,   0.000000,   0.000000 [a0]

Properties computed using the B3LYP density matrix

 Multipole Moments:

 ------------------------------------------------------------------------------------
     Multipole            Electronic (a.u.)      Nuclear  (a.u.)        Total (a.u.)
 ------------------------------------------------------------------------------------

 L = 1.  Multiply by 2.5417464519 to convert [e a0] to [Debye]
 Dipole X            :          0.0000000            0.0000000            0.0000000
 Dipole Y            :          0.0000000            0.0000000            0.0000000
 Dipole Z            :          0.4009238            0.0021089            0.4030327
 Magnitude           :                                                    0.4030327

 L = 2.  Multiply by 1.3450342976 to convert [e a0^2] to [Debye ang]
 Quadrupole XX       :         -8.9735021            0.0000000           -8.9735021
 Quadrupole XY       :          0.0000000            0.0000000            0.0000000
 Quadrupole XZ       :          0.0000000            0.0000000            0.0000000
 Quadrupole YY       :         -8.9735021            0.0000000           -8.9735021
 Quadrupole YZ       :          0.0000000            0.0000000            0.0000000
 Quadrupole ZZ       :        -35.9483337           28.5585134           -7.3898204
 Traceless XX        :          8.9916106           -9.5195045           -0.5278939
 Traceless YY        :          8.9916106           -9.5195045           -0.5278939
 Traceless ZZ        :        -17.9832211           19.0390089            1.0557878

 ------------------------------------------------------------------------------------
  ==> Computing MBIS Charges <==

  Electron Count from Grid (Expected Number): 13.00000 (13.00000)
  Difference: -0.00000

  MBIS Charges: (a.u.)
   Center  Symbol  Z      Pop.       Charge
      1       N    7    7.173773   -0.173773
      2       C    6    5.826226    0.173774

  MBIS Dipoles: [e a0]
   Center  Symbol  Z        X           Y           Z
      1       N    7   -0.000000    0.000000   -0.277544
      2       C    6    0.000000    0.000000    0.163924

  MBIS Quadrupoles: [e a0^2]
   Center  Symbol  Z      XX        XY        XZ        YY        YZ        ZZ
      1       N    7   -4.5848    0.0000   -0.0000   -4.5848    0.0000   -4.3875
      2       C    6   -4.3887    0.0000    0.0000   -4.3887    0.0000   -4.4072

  MBIS Octupoles: [e a0^3]
   Center  Symbol  Z      XXX       XXY       XXZ       XYY       XYZ       XZZ       YYY       YYZ       YZZ       ZZZ
      1       N    7   -0.0000   -0.0000   -0.4449    0.0000    0.0000    0.0000   -0.0000   -0.4449   -0.0000   -1.1904
      2       C    6   -0.0000    0.0000    0.4469    0.0000    0.0000    0.0000    0.0000    0.4469    0.0000    0.9761

  MBIS Radial Moments:
   Center  Symbol  Z      [a0^2]      [a0^3]      [a0^4]
      1       N    7   13.557027   29.672440   77.320686
      2       C    6   13.184649   32.351933   94.265214

  MBIS Valence Widths: [a0]
   Center  Symbol  Z     Width
      1       N    7    0.456086
      2       C    6    0.520085

*** tstop() called on Mac.lan at Sun Aug 10 17:15:41 2025
Module time:
	user time   =       3.39 seconds =       0.06 minutes
	system time =       2.18 seconds =       0.04 minutes
	total time  =          1 seconds =       0.02 minutes
Total time:
	user time   =      22.60 seconds =       0.38 minutes
	system time =       4.13 seconds =       0.07 minutes
	total time  =          3 seconds =       0.05 minutes

    Psi4 stopped on: Sunday, 10 August 2025 05:15PM
    Psi4 wall time for execution: 0:00:02.58

*** Psi4 exiting successfully. Buy a developer a beer!
