                               Psi4 1.9.1 release

  ==> Input File <==

--------------------------------------------------------------------------
molecule {
0 2
N           0.000000           0.000000           0.000000
C           0.000000           0.000000           0.996671
}

set {
basis              cc-pvtz
reference          uks
maxiter            500
DAMPING_PERCENTAGE 1
E_CONVERGENCE      1.0E-8
D_CONVERGENCE      1.0E-8
DIIS_MAX_VECS      400
MBIS_MAXITER       8000
guess              read
}

E, wfn = energy('b3lyp', restart_file='last_wfn', return_wfn=True)
properties('b3lyp','MBIS_CHARGES', wfn=wfn)
wfn.to_file('last_wfn')
--------------------------------------------------------------------------

    Molecular point group: c2v
  Charge       = 0
  Multiplicity = 2
  Basis Set: CC-PVTZ
    Blend: CC-PVTZ
  Basis Set: (CC-PVTZ AUX)
    Blend: CC-PVTZ-JKFIT
  @DF-UKS Final Energy:   -92.66335238633619
    Total Energy =                        -92.6633523863361859
 Dipole X            :          0.0000000            0.0000000            0.0000000
 Dipole Y            :          0.0000000            0.0000000            0.0000000
 Dipole Z            :          0.6546229            0.0013359            0.6559588
 Magnitude           :                                                    0.6559588
    Molecular point group: c2v

    Geometry (in Angstrom), charge = 0, multiplicity = 2:

       Center              X                  Y                   Z               Mass
    ------------   -----------------  -----------------  -----------------  -----------------
         N            0.000000000000     0.000000000000    -0.459947619961    14.003074004430
         C            0.000000000000     0.000000000000     0.536723380039    12.000000000000

  Charge       = 0
  Multiplicity = 2
  Basis Set: CC-PVTZ
    Blend: CC-PVTZ
  Basis Set: (CC-PVTZ AUX)
    Blend: CC-PVTZ-JKFIT

    Orbital Energies [Eh]
    ---------------------

    Alpha Occupied:

       1A1   -14.330509     2A1   -10.247421     3A1    -1.017858
       4A1    -0.471832     1B1    -0.436802     1B2    -0.436802
       5A1    -0.402258

    Alpha Virtual:

       2B1     0.049485     2B2     0.049485     6A1     0.172291
       7A1     0.253800     3B2     0.275475     3B1     0.275475
       8A1     0.448055     4B1     0.527743     4B2     0.527743
       9A1     0.616248     1A2     0.616248    10A1     0.753682
       5B1     0.886814     5B2     0.886814    11A1     0.945156
      12A1     1.212111     2A2     1.212111    13A1     1.474247
       6B1     1.567500     6B2     1.567500    14A1     1.899238
       7B1     1.906146     7B2     1.906146    15A1     2.294946
       8B2     2.604210     8B1     2.604210    16A1     2.761577
      17A1     2.778279     3A2     2.778279     9B1     2.841855
       9B2     2.841855    18A1     2.918671     4A2     2.918671
      10B2     3.075767    10B1     3.075767    19A1     3.206604
      11B1     3.512563    11B2     3.512563    12B1     3.999141
      12B2     3.999141    20A1     4.342702     5A2     4.522049
      21A1     4.522049    22A1     4.773982     6A2     4.773983
      13B1     4.907096    13B2     4.907096    23A1     5.281164
      24A1     5.517497    14B1     5.993253    14B2     5.993253
      25A1     7.055549    26A1    15.260032

    Beta Occupied:

       1A1   -14.327610     2A1   -10.229423     3A1    -0.997923
       1B1    -0.426509     1B2    -0.426509     4A1    -0.403341

    Beta Virtual:

       5A1    -0.246229     2B1     0.072559     2B2     0.072559
       6A1     0.179247     3B2     0.287293     3B1     0.287293
       7A1     0.297905     8A1     0.459413     4B1     0.532326
       4B2     0.532326     9A1     0.628797     1A2     0.628797
      10A1     0.800168     5B1     0.916483     5B2     0.916483
      11A1     0.952217    12A1     1.214993     2A2     1.214993
      13A1     1.520015     6B1     1.578771     6B2     1.578771
      14A1     1.923189     7B1     1.925340     7B2     1.925340
      15A1     2.348392     8B2     2.623356     8B1     2.623356
      16A1     2.787644     3A2     2.787644    17A1     2.800625
       9B1     2.918737     9B2     2.918737    18A1     2.977080
       4A2     2.977081    10B2     3.085368    10B1     3.085368
      19A1     3.294068    11B1     3.545329    11B2     3.545329
      12B1     3.995751    12B2     3.995751    20A1     4.368784
       5A2     4.516395    21A1     4.516395    22A1     4.783853
       6A2     4.783853    13B1     4.920535    13B2     4.920535
      23A1     5.305384    24A1     5.547004    14B1     6.020675
      14B2     6.020675    25A1     7.068797    26A1    15.285610

    Final Occupation by Irrep:
             A1    A2    B1    B2
    DOCC [     4,    0,    1,    1 ]
    SOCC [     1,    0,    0,    0 ]
    NA   [     5,    0,    1,    1 ]
    NB   [     4,    0,    1,    1 ]

  @DF-UKS Final Energy:   -92.66335238796223

   => Energetics <=

    Nuclear Repulsion Energy =             22.2996784777925754
    One-Electron Energy =                -168.5667209430434070
    Two-Electron Energy =                  63.6159500688833859
    DFT Exchange-Correlation Energy =     -10.0122599915947905
    Empirical Dispersion Energy =           0.0000000000000000
    VV10 Nonlocal Energy =                  0.0000000000000000
    Total Energy =                        -92.6633523879622203

  UHF NO Occupations:
  HONO-2 :    1 B1 1.9987886
  HONO-1 :    1 B2 1.9987886
  HONO-0 :    5 A1 1.0000000
  LUNO+0 :    2 B2 0.0012114
  LUNO+1 :    2 B1 0.0012114
  LUNO+2 :    6 A1 0.0005904
  LUNO+3 :    7 A1 0.0000552

Computation Completed

Properties will be evaluated at   0.000000,   0.000000,   0.000000 [a0]

Properties computed using the B3LYP density matrix

 Multipole Moments:

 ------------------------------------------------------------------------------------
     Multipole            Electronic (a.u.)      Nuclear  (a.u.)        Total (a.u.)
 ------------------------------------------------------------------------------------

 L = 1.  Multiply by 2.5417464519 to convert [e a0] to [Debye]
 Dipole X            :          0.0000000            0.0000000            0.0000000
 Dipole Y            :          0.0000000            0.0000000            0.0000000
 Dipole Z            :          0.6546229            0.0013359            0.6559588
 Magnitude           :                                                    0.6559588

 L = 2.  Multiply by 1.3450342976 to convert [e a0^2] to [Debye ang]
 Quadrupole XX       :         -7.6543605            0.0000000           -7.6543605
 Quadrupole XY       :          0.0000000            0.0000000            0.0000000
 Quadrupole XZ       :          0.0000000            0.0000000            0.0000000
 Quadrupole YY       :         -7.6543605            0.0000000           -7.6543605
 Quadrupole YZ       :          0.0000000            0.0000000            0.0000000
 Quadrupole ZZ       :        -19.2279306           11.4605991           -7.7673315
 Traceless XX        :          3.8578567           -3.8201997            0.0376570
 Traceless YY        :          3.8578567           -3.8201997            0.0376570
 Traceless ZZ        :         -7.7157134            7.6403994           -0.0753140

 ------------------------------------------------------------------------------------
  ==> Computing MBIS Charges <==

  Electron Count from Grid (Expected Number): 13.00000 (13.00000)
  Difference: -0.00000

  MBIS Charges: (a.u.)
   Center  Symbol  Z      Pop.       Charge
      1       N    7    7.352626   -0.352626
      2       C    6    5.647374    0.352626

  MBIS Dipoles: [e a0]
   Center  Symbol  Z        X           Y           Z
      1       N    7   -0.000000   -0.000000   -0.123426
      2       C    6   -0.000000    0.000000    0.115236

  MBIS Quadrupoles: [e a0^2]
   Center  Symbol  Z      XX        XY        XZ        YY        YZ        ZZ
      1       N    7   -4.1472    0.0000   -0.0000   -4.1472   -0.0000   -4.5960
      2       C    6   -3.5072    0.0000   -0.0000   -3.5072    0.0000   -3.7160

  MBIS Octupoles: [e a0^3]
   Center  Symbol  Z      XXX       XXY       XXZ       XYY       XYZ       XZZ       YYY       YYZ       YZZ       ZZZ
      1       N    7   -0.0000   -0.0000   -0.1087   -0.0000    0.0000   -0.0000    0.0000   -0.1087    0.0000    0.0280
      2       C    6   -0.0000   -0.0000   -0.0107   -0.0000    0.0000   -0.0000    0.0000   -0.0107    0.0000   -0.1142

  MBIS Radial Moments:
   Center  Symbol  Z      [a0^2]      [a0^3]      [a0^4]
      1       N    7   12.890463   27.084690   68.182154
      2       C    6   10.730263   24.469206   66.964246

  MBIS Valence Widths: [a0]
   Center  Symbol  Z     Width
      1       N    7    0.435712
      2       C    6    0.474981

*** tstop() called on Mac.lan at Sun Aug 10 17:13:02 2025
Module time:
	user time   =       3.76 seconds =       0.06 minutes
	system time =       2.14 seconds =       0.04 minutes
	total time  =          1 seconds =       0.02 minutes
Total time:
	user time   =      18.79 seconds =       0.31 minutes
	system time =       4.18 seconds =       0.07 minutes
	total time  =          2 seconds =       0.03 minutes

    Psi4 stopped on: Sunday, 10 August 2025 05:13PM
    Psi4 wall time for execution: 0:00:02.22

*** Psi4 exiting successfully. Buy a developer a beer!
