                               Psi4 1.9.1 release

  ==> Input File <==

--------------------------------------------------------------------------
molecule {
0 1
N           0.000000           0.000000           0.000000
N           0.000000           0.000000           1.376408
}

set {
basis              cc-pvtz
reference          uks
maxiter            500
DAMPING_PERCENTAGE 1
E_CONVERGENCE      1.0E-8
D_CONVERGENCE      1.0E-8
DIIS_MAX_VECS      400
MBIS_MAXITER       8000
guess              read
}

E, wfn = energy('b3lyp', restart_file='last_wfn', return_wfn=True)
properties('b3lyp','MBIS_CHARGES', wfn=wfn)
wfn.to_file('last_wfn')
--------------------------------------------------------------------------

    Molecular point group: d2h
  Charge       = 0
  Multiplicity = 1
  Basis Set: CC-PVTZ
    Blend: CC-PVTZ
  Basis Set: (CC-PVTZ AUX)
    Blend: CC-PVTZ-JKFIT
  @DF-UKS Final Energy:  -109.44485145542276
    Total Energy =                       -109.4448514554227643
 Dipole X            :          0.0000000            0.0000000            0.0000000
 Dipole Y            :          0.0000000            0.0000000            0.0000000
 Dipole Z            :          0.0000000            0.0000000            0.0000000
 Magnitude           :                                                    0.0000000
    Molecular point group: d2h

    Geometry (in Angstrom), charge = 0, multiplicity = 1:

       Center              X                  Y                   Z               Mass
    ------------   -----------------  -----------------  -----------------  -----------------
         N            0.000000000000     0.000000000000    -0.688204000000    14.003074004430
         N            0.000000000000     0.000000000000     0.688204000000    14.003074004430

  Charge       = 0
  Multiplicity = 1
  Basis Set: CC-PVTZ
    Blend: CC-PVTZ
  Basis Set: (CC-PVTZ AUX)
    Blend: CC-PVTZ-JKFIT

    Orbital Energies [Eh]
    ---------------------

    Alpha Occupied:

       1Ag   -14.480063     1B1u  -14.479761     2Ag    -0.980488
       2B1u   -0.625053     3Ag    -0.418976     1B3u   -0.399246
       1B2u   -0.399246

    Alpha Virtual:

       1B3g   -0.129115     1B2g   -0.129115     3B1u    0.172568
       2B3u    0.414131     2B2u    0.414131     4B1u    0.421714
       4Ag     0.437635     5Ag     0.485506     2B2g    0.508324
       2B3g    0.508324     1B1g    0.865345     6Ag     0.865345
       5B1u    0.865365     3B2u    0.948693     3B3u    0.948693
       1Au     1.174271     6B1u    1.174271     7Ag     1.577952
       3B2g    1.595246     3B3g    1.595246     7B1u    1.635514
       4B3u    2.694085     4B2u    2.694085     8Ag     2.815346
       4B2g    2.901933     4B3g    2.901933     2B1g    3.479795
       9Ag     3.479795     5B2u    3.501125     5B3u    3.501125
       8B1u    3.589226    10Ag     3.634399     6B2u    3.730178
       6B3u    3.730178     5B3g    3.917639     5B2g    3.917639
       9B1u    4.283576     2Au     4.283578    10B1u    4.312517
      11Ag     4.325578     3B1g    4.325586    11B1u    4.541705
       3Au     4.541712     6B2g    4.554747     6B3g    4.554747
       7B3u    4.635675     7B2u    4.635675    12B1u    4.951992
      12Ag     5.183234     7B3g    5.451832     7B2g    5.451832
      13Ag     5.572982    13B1u    9.162224

    Beta Occupied:

       1Ag   -14.480063     1B1u  -14.479761     2Ag    -0.980488
       2B1u   -0.625053     3Ag    -0.418976     1B3u   -0.399246
       1B2u   -0.399246

    Beta Virtual:

       1B3g   -0.129115     1B2g   -0.129115     3B1u    0.172568
       2B3u    0.414131     2B2u    0.414131     4B1u    0.421714
       4Ag     0.437635     5Ag     0.485506     2B2g    0.508324
       2B3g    0.508324     1B1g    0.865345     6Ag     0.865345
       5B1u    0.865365     3B2u    0.948693     3B3u    0.948693
       1Au     1.174271     6B1u    1.174271     7Ag     1.577952
       3B2g    1.595246     3B3g    1.595246     7B1u    1.635514
       4B3u    2.694085     4B2u    2.694085     8Ag     2.815346
       4B2g    2.901933     4B3g    2.901933     2B1g    3.479795
       9Ag     3.479795     5B2u    3.501125     5B3u    3.501125
       8B1u    3.589226    10Ag     3.634399     6B2u    3.730178
       6B3u    3.730178     5B3g    3.917639     5B2g    3.917639
       9B1u    4.283576     2Au     4.283578    10B1u    4.312517
      11Ag     4.325578     3B1g    4.325586    11B1u    4.541705
       3Au     4.541712     6B2g    4.554747     6B3g    4.554747
       7B3u    4.635675     7B2u    4.635675    12B1u    4.951992
      12Ag     5.183234     7B3g    5.451832     7B2g    5.451832
      13Ag     5.572982    13B1u    9.162224

    Final Occupation by Irrep:
             Ag   B1g   B2g   B3g    Au   B1u   B2u   B3u
    DOCC [     3,    0,    0,    0,    0,    2,    1,    1 ]
    SOCC [     0,    0,    0,    0,    0,    0,    0,    0 ]
    NA   [     3,    0,    0,    0,    0,    2,    1,    1 ]
    NB   [     3,    0,    0,    0,    0,    2,    1,    1 ]

  @DF-UKS Final Energy:  -109.44485145556354

   => Energetics <=

    Nuclear Repulsion Energy =             18.8386607189365378
    One-Electron Energy =                -185.1708515290637820
    Two-Electron Energy =                  67.7606706896445701
    DFT Exchange-Correlation Energy =     -10.8733313350808558
    Empirical Dispersion Energy =           0.0000000000000000
    VV10 Nonlocal Energy =                  0.0000000000000000
    Total Energy =                       -109.4448514555635370

  UHF NO Occupations:
  HONO-2 :    1B2u 2.0000000
  HONO-1 :    3 Ag 2.0000000
  HONO-0 :    2B1u 2.0000000
  LUNO+0 :    3B1u 0.0000000
  LUNO+1 :    4 Ag 0.0000000
  LUNO+2 :    5 Ag 0.0000000
  LUNO+3 :    4B1u 0.0000000

Computation Completed

Properties will be evaluated at   0.000000,   0.000000,   0.000000 [a0]

Properties computed using the B3LYP density matrix

 Multipole Moments:

 ------------------------------------------------------------------------------------
     Multipole            Electronic (a.u.)      Nuclear  (a.u.)        Total (a.u.)
 ------------------------------------------------------------------------------------

 L = 1.  Multiply by 2.5417464519 to convert [e a0] to [Debye]
 Dipole X            :          0.0000000            0.0000000            0.0000000
 Dipole Y            :          0.0000000            0.0000000            0.0000000
 Dipole Z            :          0.0000000            0.0000000            0.0000000
 Magnitude           :                                                    0.0000000

 L = 2.  Multiply by 1.3450342976 to convert [e a0^2] to [Debye ang]
 Quadrupole XX       :         -8.0703621            0.0000000           -8.0703621
 Quadrupole XY       :          0.0000000            0.0000000            0.0000000
 Quadrupole XZ       :          0.0000000            0.0000000            0.0000000
 Quadrupole YY       :         -8.0703621            0.0000000           -8.0703621
 Quadrupole YZ       :          0.0000000            0.0000000            0.0000000
 Quadrupole ZZ       :        -32.3069778           23.6788254           -8.6281524
 Traceless XX        :          8.0788719           -7.8929418            0.1859301
 Traceless YY        :          8.0788719           -7.8929418            0.1859301
 Traceless ZZ        :        -16.1577438           15.7858836           -0.3718602

 ------------------------------------------------------------------------------------
  ==> Computing MBIS Charges <==

  Electron Count from Grid (Expected Number): 14.00000 (14.00000)
  Difference:  0.00000

  MBIS Charges: (a.u.)
   Center  Symbol  Z      Pop.       Charge
      1       N    7    7.000000   -0.000000
      2       N    7    7.000000   -0.000000

  MBIS Dipoles: [e a0]
   Center  Symbol  Z        X           Y           Z
      1       N    7   -0.000000    0.000000   -0.008692
      2       N    7   -0.000000    0.000000    0.008692

  MBIS Quadrupoles: [e a0^2]
   Center  Symbol  Z      XX        XY        XZ        YY        YZ        ZZ
      1       N    7   -4.0352    0.0000   -0.0000   -4.0352   -0.0000   -4.3367
      2       N    7   -4.0352    0.0000   -0.0000   -4.0352    0.0000   -4.3367

  MBIS Octupoles: [e a0^3]
   Center  Symbol  Z      XXX       XXY       XXZ       XYY       XYZ       XZZ       YYY       YYZ       YZZ       ZZZ
      1       N    7   -0.0000   -0.0000   -0.1272    0.0000   -0.0000    0.0000   -0.0000   -0.1272    0.0000   -0.2525
      2       N    7   -0.0000    0.0000    0.1272    0.0000    0.0000    0.0000   -0.0000    0.1272    0.0000    0.2525

  MBIS Radial Moments:
   Center  Symbol  Z      [a0^2]      [a0^3]      [a0^4]
      1       N    7   12.407048   26.246714   66.107393
      2       N    7   12.407048   26.246714   66.107393

  MBIS Valence Widths: [a0]
   Center  Symbol  Z     Width
      1       N    7    0.443204
      2       N    7    0.443204

*** tstop() called on Mac.lan at Sun Aug 10 17:07:16 2025
Module time:
	user time   =       7.84 seconds =       0.13 minutes
	system time =       2.03 seconds =       0.03 minutes
	total time  =          1 seconds =       0.02 minutes
Total time:
	user time   =      30.34 seconds =       0.51 minutes
	system time =       4.17 seconds =       0.07 minutes
	total time  =          3 seconds =       0.05 minutes

    Psi4 stopped on: Sunday, 10 August 2025 05:07PM
    Psi4 wall time for execution: 0:00:03.61

*** Psi4 exiting successfully. Buy a developer a beer!
