                               Psi4 1.9.1 release

  ==> Input File <==

--------------------------------------------------------------------------
molecule {
0 2
C           0.000000           0.000000           0.000000
H           0.000000           0.000000           1.314041
}

set {
basis              cc-pvtz
reference          uks
maxiter            500
DAMPING_PERCENTAGE 1
E_CONVERGENCE      1.0E-8
D_CONVERGENCE      1.0E-8
DIIS_MAX_VECS      400
MBIS_MAXITER       8000
guess              read
}

E, wfn = energy('b3lyp', restart_file='last_wfn', return_wfn=True)
properties('b3lyp','MBIS_CHARGES', wfn=wfn)
wfn.to_file('last_wfn')
--------------------------------------------------------------------------

    Molecular point group: c2v
  Charge       = 0
  Multiplicity = 2
  Basis Set: CC-PVTZ
    Blend: CC-PVTZ
  Basis Set: (CC-PVTZ AUX)
    Blend: CC-PVTZ-JKFIT
  @DF-UKS Final Energy:   -38.48348617092910
    Total Energy =                        -38.4834861709290976
 Dipole X            :          0.0000000            0.0000000            0.0000000
 Dipole Y            :          0.0000000            0.0000000            0.0000000
 Dipole Z            :         -0.7093407            1.1364298            0.4270891
 Magnitude           :                                                    0.4270891
    Molecular point group: c2v

    Geometry (in Angstrom), charge = 0, multiplicity = 2:

       Center              X                  Y                   Z               Mass
    ------------   -----------------  -----------------  -----------------  -----------------
         C            0.000000000000     0.000000000000    -0.101809749892    12.000000000000
         H            0.000000000000     0.000000000000     1.212231250108     1.007825032230

  Charge       = 0
  Multiplicity = 2
  Basis Set: CC-PVTZ
    Blend: CC-PVTZ
  Basis Set: (CC-PVTZ AUX)
    Blend: CC-PVTZ-JKFIT

    Orbital Energies [Eh]
    ---------------------

    Alpha Occupied:

       1A1   -10.302346     2A1    -0.617639     3A1    -0.321564
       1B1    -0.263270

    Alpha Virtual:

       1B2    -0.150346     4A1     0.028873     5A1     0.270917
       2B1     0.288696     2B2     0.308353     6A1     0.324005
       7A1     0.447258     3B1     0.549789     3B2     0.552328
       1A2     0.654053     8A1     0.659785     9A1     0.911036
       4B1     0.977885     4B2     0.978675    10A1     1.228033
       5B1     1.908587     5B2     1.935100    11A1     2.118953
      12A1     2.361804     2A2     2.546978    13A1     2.550998
       6B1     2.563713     6B2     2.568403     7B1     2.637873
       7B2     2.640406    14A1     2.746447     3A2     2.890220
      15A1     2.903338     8B1     3.020330     8B2     3.033449
      16A1     3.082157     4A2     3.394058    17A1     3.395288
       9B2     3.715840     9B1     3.718070    18A1     3.892631
      10B2     4.259098    10B1     4.259272    19A1     4.385548
      20A1     6.524968

    Beta Occupied:

       1A1   -10.287241     2A1    -0.571152     3A1    -0.305160

    Beta Virtual:

       1B2    -0.134155     1B1    -0.087596     4A1     0.036638
       5A1     0.275108     2B2     0.315793     6A1     0.331961
       2B1     0.344683     7A1     0.466828     3B2     0.552986
       3B1     0.572971     8A1     0.697225     1A2     0.697581
       9A1     0.924297     4B2     0.979990     4B1     0.999717
      10A1     1.233663     5B2     1.946109     5B1     1.989833
      11A1     2.131288    12A1     2.367311     6B2     2.571661
      13A1     2.578260     2A2     2.578382     6B1     2.602844
       7B2     2.696630     7B1     2.697304    14A1     2.765632
       3A2     2.968695    15A1     2.969482     8B2     3.038884
       8B1     3.081010    16A1     3.102466     4A2     3.400561
      17A1     3.400876     9B2     3.710467     9B1     3.717586
      18A1     3.904144    10B2     4.258400    10B1     4.277103
      19A1     4.387280    20A1     6.540809

    Final Occupation by Irrep:
             A1    A2    B1    B2
    DOCC [     3,    0,    0,    0 ]
    SOCC [     0,    0,    1,    0 ]
    NA   [     3,    0,    1,    0 ]
    NB   [     3,    0,    0,    0 ]

  @DF-UKS Final Energy:   -38.48348617126829

   => Energetics <=

    Nuclear Repulsion Energy =              2.4162589021347127
    One-Electron Energy =                 -55.8793800760761314
    Two-Electron Energy =                  19.4816219240705628
    DFT Exchange-Correlation Energy =      -4.5019869213974317
    Empirical Dispersion Energy =           0.0000000000000000
    VV10 Nonlocal Energy =                  0.0000000000000000
    Total Energy =                        -38.4834861712682823

  UHF NO Occupations:
  HONO-2 :    2 A1 1.9996908
  HONO-1 :    3 A1 1.9986194
  HONO-0 :    1 B1 1.0000000
  LUNO+0 :    4 A1 0.0013806
  LUNO+1 :    5 A1 0.0003092
  LUNO+2 :    6 A1 0.0000007
  LUNO+3 :    7 A1 0.0000000

Computation Completed

Properties will be evaluated at   0.000000,   0.000000,   0.000000 [a0]

Properties computed using the B3LYP density matrix

 Multipole Moments:

 ------------------------------------------------------------------------------------
     Multipole            Electronic (a.u.)      Nuclear  (a.u.)        Total (a.u.)
 ------------------------------------------------------------------------------------

 L = 1.  Multiply by 2.5417464519 to convert [e a0] to [Debye]
 Dipole X            :          0.0000000            0.0000000            0.0000000
 Dipole Y            :          0.0000000            0.0000000            0.0000000
 Dipole Z            :         -0.7093407            1.1364298            0.4270891
 Magnitude           :                                                    0.4270891

 L = 2.  Multiply by 1.3450342976 to convert [e a0^2] to [Debye ang]
 Quadrupole XX       :         -5.8304771            0.0000000           -5.8304771
 Quadrupole XY       :          0.0000000            0.0000000            0.0000000
 Quadrupole XZ       :          0.0000000            0.0000000            0.0000000
 Quadrupole YY       :         -4.3507260            0.0000000           -4.3507260
 Quadrupole YZ       :          0.0000000            0.0000000            0.0000000
 Quadrupole ZZ       :        -11.1242228            5.4697856           -5.6544372
 Traceless XX        :          1.2713315           -1.8232619           -0.5519303
 Traceless YY        :          2.7510826           -1.8232619            0.9278208
 Traceless ZZ        :         -4.0224141            3.6465237           -0.3758904

 ------------------------------------------------------------------------------------
  ==> Computing MBIS Charges <==

  Electron Count from Grid (Expected Number):  7.00000 ( 7.00000)
  Difference:  0.00000

  MBIS Charges: (a.u.)
   Center  Symbol  Z      Pop.       Charge
      1       C    6    6.039325   -0.039325
      2       H    1    0.960675    0.039325

  MBIS Dipoles: [e a0]
   Center  Symbol  Z        X           Y           Z
      1       C    6    0.000000   -0.000000    0.266673
      2       H    1   -0.000000   -0.000000    0.062764

  MBIS Quadrupoles: [e a0^2]
   Center  Symbol  Z      XX        XY        XZ        YY        YZ        ZZ
      1       C    6   -5.0967    0.0000   -0.0000   -3.6934    0.0000   -5.3226
      2       H    1   -0.7338    0.0000   -0.0000   -0.6573    0.0000   -0.7217

  MBIS Octupoles: [e a0^3]
   Center  Symbol  Z      XXX       XXY       XXZ       XYY       XYZ       XZZ       YYY       YYZ       YZZ       ZZZ
      1       C    6   -0.0000   -0.0000    0.3320   -0.0000   -0.0000   -0.0000    0.0000    0.3124    0.0000    0.5725
      2       H    1   -0.0000    0.0000    0.0009   -0.0000   -0.0000   -0.0000    0.0000   -0.0591   -0.0000   -0.0148

  MBIS Radial Moments:
   Center  Symbol  Z      [a0^2]      [a0^3]      [a0^4]
      1       C    6   14.112748   35.170193   104.835957
      2       H    1    2.112749    4.500005   11.539152

  MBIS Valence Widths: [a0]
   Center  Symbol  Z     Width
      1       C    6    0.523975
      2       H    1    0.430335

*** tstop() called on Mac.lan at Sun Aug 10 17:09:19 2025
Module time:
	user time   =       2.37 seconds =       0.04 minutes
	system time =       1.94 seconds =       0.03 minutes
	total time  =          0 seconds =       0.00 minutes
Total time:
	user time   =      12.83 seconds =       0.21 minutes
	system time =       4.20 seconds =       0.07 minutes
	total time  =          2 seconds =       0.03 minutes

    Psi4 stopped on: Sunday, 10 August 2025 05:09PM
    Psi4 wall time for execution: 0:00:01.68

*** Psi4 exiting successfully. Buy a developer a beer!
