                               Psi4 1.9.1 release

  ==> Input File <==

--------------------------------------------------------------------------
molecule {
0 1
N           0.000000           0.000000           0.000000
N           0.000000           0.000000           0.654796
}

set {
basis              cc-pvtz
reference          uks
maxiter            500
DAMPING_PERCENTAGE 1
E_CONVERGENCE      1.0E-8
D_CONVERGENCE      1.0E-8
DIIS_MAX_VECS      400
MBIS_MAXITER       8000
guess              read
}

E, wfn = energy('b3lyp', restart_file='last_wfn', return_wfn=True)
properties('b3lyp','MBIS_CHARGES', wfn=wfn)
wfn.to_file('last_wfn')
--------------------------------------------------------------------------

    Molecular point group: d2h
  Charge       = 0
  Multiplicity = 1
  Basis Set: CC-PVTZ
    Blend: CC-PVTZ
  Basis Set: (CC-PVTZ AUX)
    Blend: CC-PVTZ-JKFIT
  @DF-UKS Final Energy:  -107.77264508370210
    Total Energy =                       -107.7726450837021019
 Dipole X            :          0.0000000            0.0000000            0.0000000
 Dipole Y            :          0.0000000            0.0000000            0.0000000
 Dipole Z            :          0.0000000            0.0000000            0.0000000
 Magnitude           :                                                    0.0000000
    Molecular point group: d2h

    Geometry (in Angstrom), charge = 0, multiplicity = 1:

       Center              X                  Y                   Z               Mass
    ------------   -----------------  -----------------  -----------------  -----------------
         N            0.000000000000     0.000000000000    -0.327398000000    14.003074004430
         N            0.000000000000     0.000000000000     0.327398000000    14.003074004430

  Charge       = 0
  Multiplicity = 1
  Basis Set: CC-PVTZ
    Blend: CC-PVTZ
  Basis Set: (CC-PVTZ AUX)
    Blend: CC-PVTZ-JKFIT

    Orbital Energies [Eh]
    ---------------------

    Alpha Occupied:

       1Ag   -14.419803     1B1u  -14.278514     2Ag    -1.212873
       1B3u   -0.712887     1B2u   -0.712887     3Ag    -0.448354
       2B1u   -0.409391

    Alpha Virtual:

       1B3g    0.224857     1B2g    0.224857     3B1u    0.305713
       2B3u    0.313323     2B2u    0.313323     4Ag     0.367367
       5Ag     0.548931     2B3g    0.682676     2B2g    0.682676
       1B1g    0.842891     6Ag     0.842891     4B1u    0.908473
       3B2u    1.377871     3B3u    1.377871     1Au     1.423789
       5B1u    1.423789     6B1u    1.468824     7Ag     1.506913
       3B3g    1.749868     3B2g    1.749868     4B2u    2.436799
       4B3u    2.436799     8Ag     3.191339     7B1u    3.316767
       5B3u    3.464410     5B2u    3.464410     4B3g    3.571510
       4B2g    3.571510     2B1g    3.617658     9Ag     3.617658
       8B1u    3.875568     6B2u    4.093252     6B3u    4.093252
       2Au     4.232535     9B1u    4.232535    10Ag     4.327638
       5B2g    4.538038     5B3g    4.538038     6B2g    4.609630
       6B3g    4.609630     3B1g    4.611213    11Ag     4.611213
      12Ag     4.817222    10B1u    5.474973     7B3u    6.185301
       7B2u    6.185301     3Au     6.510538    11B1u    6.510539
       7B2g    8.324300     7B3g    8.324300    13Ag     8.464229
      12B1u    9.096642    13B1u   29.291116

    Beta Occupied:

       1Ag   -14.419803     1B1u  -14.278514     2Ag    -1.212873
       1B3u   -0.712887     1B2u   -0.712887     3Ag    -0.448354
       2B1u   -0.409391

    Beta Virtual:

       1B3g    0.224857     1B2g    0.224857     3B1u    0.305713
       2B3u    0.313323     2B2u    0.313323     4Ag     0.367367
       5Ag     0.548931     2B3g    0.682676     2B2g    0.682676
       1B1g    0.842891     6Ag     0.842891     4B1u    0.908473
       3B2u    1.377871     3B3u    1.377871     1Au     1.423789
       5B1u    1.423789     6B1u    1.468824     7Ag     1.506913
       3B3g    1.749868     3B2g    1.749868     4B2u    2.436799
       4B3u    2.436799     8Ag     3.191339     7B1u    3.316767
       5B3u    3.464410     5B2u    3.464410     4B3g    3.571510
       4B2g    3.571510     2B1g    3.617658     9Ag     3.617658
       8B1u    3.875568     6B2u    4.093252     6B3u    4.093252
       2Au     4.232535     9B1u    4.232535    10Ag     4.327638
       5B2g    4.538038     5B3g    4.538038     6B2g    4.609630
       6B3g    4.609630     3B1g    4.611213    11Ag     4.611213
      12Ag     4.817222    10B1u    5.474973     7B3u    6.185301
       7B2u    6.185301     3Au     6.510538    11B1u    6.510539
       7B2g    8.324300     7B3g    8.324300    13Ag     8.464229
      12B1u    9.096642    13B1u   29.291116

    Final Occupation by Irrep:
             Ag   B1g   B2g   B3g    Au   B1u   B2u   B3u
    DOCC [     3,    0,    0,    0,    0,    2,    1,    1 ]
    SOCC [     0,    0,    0,    0,    0,    0,    0,    0 ]
    NA   [     3,    0,    0,    0,    0,    2,    1,    1 ]
    NB   [     3,    0,    0,    0,    0,    2,    1,    1 ]

  @DF-UKS Final Energy:  -107.77264508165656

   => Energetics <=

    Nuclear Repulsion Energy =             39.5996361047257395
    One-Electron Energy =                -221.8393417654990003
    Two-Electron Energy =                  86.3370028586015223
    DFT Exchange-Correlation Energy =     -11.8699422794848175
    Empirical Dispersion Energy =           0.0000000000000000
    VV10 Nonlocal Energy =                  0.0000000000000000
    Total Energy =                       -107.7726450816565631

  UHF NO Occupations:
  HONO-2 :    1B2u 2.0000000
  HONO-1 :    3 Ag 2.0000000
  HONO-0 :    2B1u 2.0000000
  LUNO+0 :    3B1u 0.0000000
  LUNO+1 :    4 Ag 0.0000000
  LUNO+2 :    4B1u 0.0000000
  LUNO+3 :    2B3u 0.0000000

Computation Completed

Properties will be evaluated at   0.000000,   0.000000,   0.000000 [a0]

Properties computed using the B3LYP density matrix

 Multipole Moments:

 ------------------------------------------------------------------------------------
     Multipole            Electronic (a.u.)      Nuclear  (a.u.)        Total (a.u.)
 ------------------------------------------------------------------------------------

 L = 1.  Multiply by 2.5417464519 to convert [e a0] to [Debye]
 Dipole X            :          0.0000000            0.0000000            0.0000000
 Dipole Y            :          0.0000000            0.0000000            0.0000000
 Dipole Z            :          0.0000000            0.0000000            0.0000000
 Magnitude           :                                                    0.0000000

 L = 2.  Multiply by 1.3450342976 to convert [e a0^2] to [Debye ang]
 Quadrupole XX       :         -6.2369152            0.0000000           -6.2369152
 Quadrupole XY       :          0.0000000            0.0000000            0.0000000
 Quadrupole XZ       :          0.0000000            0.0000000            0.0000000
 Quadrupole YY       :         -6.2369152            0.0000000           -6.2369152
 Quadrupole YZ       :          0.0000000            0.0000000            0.0000000
 Quadrupole ZZ       :        -13.6514548            5.3589267           -8.2925281
 Traceless XX        :          2.4715132           -1.7863089            0.6852043
 Traceless YY        :          2.4715132           -1.7863089            0.6852043
 Traceless ZZ        :         -4.9430264            3.5726178           -1.3704086

 ------------------------------------------------------------------------------------
  ==> Computing MBIS Charges <==

  Electron Count from Grid (Expected Number): 14.00000 (14.00000)
  Difference: -0.00000

  MBIS Charges: (a.u.)
   Center  Symbol  Z      Pop.       Charge
      1       N    7    6.999999    0.000001
      2       N    7    6.999999    0.000001

  MBIS Dipoles: [e a0]
   Center  Symbol  Z        X           Y           Z
      1       N    7    0.000000    0.000000    0.167027
      2       N    7   -0.000000    0.000000   -0.167027

  MBIS Quadrupoles: [e a0^2]
   Center  Symbol  Z      XX        XY        XZ        YY        YZ        ZZ
      1       N    7   -3.1185   -0.0000   -0.0000   -3.1185   -0.0000   -3.9396
      2       N    7   -3.1185   -0.0000    0.0000   -3.1185   -0.0000   -3.9396

  MBIS Octupoles: [e a0^3]
   Center  Symbol  Z      XXX       XXY       XXZ       XYY       XYZ       XZZ       YYY       YYZ       YZZ       ZZZ
      1       N    7   -0.0000   -0.0000    0.2866    0.0000   -0.0000    0.0000   -0.0000    0.2866   -0.0000    0.9281
      2       N    7    0.0000   -0.0000   -0.2866    0.0000    0.0000    0.0000    0.0000   -0.2866    0.0000   -0.9281

  MBIS Radial Moments:
   Center  Symbol  Z      [a0^2]      [a0^3]      [a0^4]
      1       N    7   10.176503   20.003233   47.593624
      2       N    7   10.176503   20.003233   47.593624

  MBIS Valence Widths: [a0]
   Center  Symbol  Z     Width
      1       N    7    0.395113
      2       N    7    0.395113

*** tstop() called on Mac.lan at Sun Aug 10 17:06:26 2025
Module time:
	user time   =       3.59 seconds =       0.06 minutes
	system time =       2.53 seconds =       0.04 minutes
	total time  =          0 seconds =       0.00 minutes
Total time:
	user time   =      14.81 seconds =       0.25 minutes
	system time =       4.58 seconds =       0.08 minutes
	total time  =          2 seconds =       0.03 minutes

    Psi4 stopped on: Sunday, 10 August 2025 05:06PM
    Psi4 wall time for execution: 0:00:01.89

*** Psi4 exiting successfully. Buy a developer a beer!
