                               Psi4 1.9.1 release

  ==> Input File <==

--------------------------------------------------------------------------
molecule {
0 1
N           0.000000           0.000000           0.000000
N           0.000000           0.000000           1.296229
}

set {
basis              cc-pvtz
reference          uks
maxiter            500
DAMPING_PERCENTAGE 1
E_CONVERGENCE      1.0E-8
D_CONVERGENCE      1.0E-8
DIIS_MAX_VECS      400
MBIS_MAXITER       8000
guess              read
}

E, wfn = energy('b3lyp', restart_file='last_wfn', return_wfn=True)
properties('b3lyp','MBIS_CHARGES', wfn=wfn)
wfn.to_file('last_wfn')
--------------------------------------------------------------------------

    Molecular point group: d2h
  Charge       = 0
  Multiplicity = 1
  Basis Set: CC-PVTZ
    Blend: CC-PVTZ
  Basis Set: (CC-PVTZ AUX)
    Blend: CC-PVTZ-JKFIT
  @DF-UKS Final Energy:  -109.49310337108201
    Total Energy =                       -109.4931033710820145
 Dipole X            :          0.0000000            0.0000000            0.0000000
 Dipole Y            :          0.0000000            0.0000000            0.0000000
 Dipole Z            :          0.0000000            0.0000000            0.0000000
 Magnitude           :                                                    0.0000000
    Molecular point group: d2h

    Geometry (in Angstrom), charge = 0, multiplicity = 1:

       Center              X                  Y                   Z               Mass
    ------------   -----------------  -----------------  -----------------  -----------------
         N            0.000000000000     0.000000000000    -0.648114500000    14.003074004430
         N            0.000000000000     0.000000000000     0.648114500000    14.003074004430

  Charge       = 0
  Multiplicity = 1
  Basis Set: CC-PVTZ
    Blend: CC-PVTZ
  Basis Set: (CC-PVTZ AUX)
    Blend: CC-PVTZ-JKFIT

    Orbital Energies [Eh]
    ---------------------

    Alpha Occupied:

       1Ag   -14.467631     1B1u  -14.467186     2Ag    -1.019064
       2B1u   -0.606518     3Ag    -0.424014     1B2u   -0.416143
       1B3u   -0.416143

    Alpha Virtual:

       1B3g   -0.105708     1B2g   -0.105708     3B1u    0.227193
       2B2u    0.408976     2B3u    0.408976     4Ag     0.431018
       4B1u    0.463316     5Ag     0.482487     2B3g    0.513019
       2B2g    0.513019     1B1g    0.854291     6Ag     0.854291
       5B1u    0.855365     3B3u    0.983629     3B2u    0.983629
       1Au     1.197897     6B1u    1.197897     3B2g    1.627704
       3B3g    1.627704     7Ag     1.631661     7B1u    1.664620
       4B3u    2.710748     4B2u    2.710748     8Ag     2.841186
       4B2g    2.938671     4B3g    2.938671     2B1g    3.453898
       9Ag     3.453899     5B3u    3.509007     5B2u    3.509007
       8B1u    3.567103     6B2u    3.698126     6B3u    3.698126
      10Ag     3.714503     5B3g    3.952529     5B2g    3.952529
       9B1u    4.268663    11Ag     4.329385     3B1g    4.329387
      10B1u    4.366564     2Au     4.366564     6B2g    4.577340
       6B3g    4.577340    11B1u    4.603207     3Au     4.603207
       7B3u    4.727077     7B2u    4.727077    12B1u    5.128633
      12Ag     5.322557    13Ag     5.583199     7B3g    5.670593
       7B2g    5.670593    13B1u   10.511006

    Beta Occupied:

       1Ag   -14.467631     1B1u  -14.467186     2Ag    -1.019064
       2B1u   -0.606518     3Ag    -0.424014     1B2u   -0.416143
       1B3u   -0.416143

    Beta Virtual:

       1B3g   -0.105708     1B2g   -0.105708     3B1u    0.227193
       2B2u    0.408976     2B3u    0.408976     4Ag     0.431018
       4B1u    0.463316     5Ag     0.482487     2B3g    0.513019
       2B2g    0.513019     1B1g    0.854291     6Ag     0.854291
       5B1u    0.855365     3B3u    0.983629     3B2u    0.983629
       1Au     1.197897     6B1u    1.197897     3B2g    1.627704
       3B3g    1.627704     7Ag     1.631661     7B1u    1.664620
       4B3u    2.710748     4B2u    2.710748     8Ag     2.841186
       4B2g    2.938671     4B3g    2.938671     2B1g    3.453898
       9Ag     3.453899     5B3u    3.509007     5B2u    3.509007
       8B1u    3.567103     6B2u    3.698126     6B3u    3.698126
      10Ag     3.714503     5B3g    3.952529     5B2g    3.952529
       9B1u    4.268663    11Ag     4.329385     3B1g    4.329387
      10B1u    4.366564     2Au     4.366564     6B2g    4.577340
       6B3g    4.577340    11B1u    4.603207     3Au     4.603207
       7B3u    4.727077     7B2u    4.727077    12B1u    5.128633
      12Ag     5.322557    13Ag     5.583199     7B3g    5.670593
       7B2g    5.670593    13B1u   10.511006

    Final Occupation by Irrep:
             Ag   B1g   B2g   B3g    Au   B1u   B2u   B3u
    DOCC [     3,    0,    0,    0,    0,    2,    1,    1 ]
    SOCC [     0,    0,    0,    0,    0,    0,    0,    0 ]
    NA   [     3,    0,    0,    0,    0,    2,    1,    1 ]
    NB   [     3,    0,    0,    0,    0,    2,    1,    1 ]

  @DF-UKS Final Energy:  -109.49310337127875

   => Energetics <=

    Nuclear Repulsion Energy =             20.0039370534295990
    One-Electron Energy =                -187.4990804160473772
    Two-Electron Energy =                  68.9213611497608127
    DFT Exchange-Correlation Energy =     -10.9193211584217877
    Empirical Dispersion Energy =           0.0000000000000000
    VV10 Nonlocal Energy =                  0.0000000000000000
    Total Energy =                       -109.4931033712787496

  UHF NO Occupations:
  HONO-2 :    3 Ag 2.0000000
  HONO-1 :    1B2u 2.0000000
  HONO-0 :    1B3u 2.0000000
  LUNO+0 :    4 Ag 0.0000000
  LUNO+1 :    3B1u 0.0000000
  LUNO+2 :    4B1u 0.0000000
  LUNO+3 :    5B1u 0.0000000

Computation Completed

Properties will be evaluated at   0.000000,   0.000000,   0.000000 [a0]

Properties computed using the B3LYP density matrix

 Multipole Moments:

 ------------------------------------------------------------------------------------
     Multipole            Electronic (a.u.)      Nuclear  (a.u.)        Total (a.u.)
 ------------------------------------------------------------------------------------

 L = 1.  Multiply by 2.5417464519 to convert [e a0] to [Debye]
 Dipole X            :          0.0000000            0.0000000            0.0000000
 Dipole Y            :          0.0000000            0.0000000            0.0000000
 Dipole Z            :          0.0000000            0.0000000            0.0000000
 Magnitude           :                                                    0.0000000

 L = 2.  Multiply by 1.3450342976 to convert [e a0^2] to [Debye ang]
 Quadrupole XX       :         -7.9396446            0.0000000           -7.9396446
 Quadrupole XY       :          0.0000000            0.0000000            0.0000000
 Quadrupole XZ       :          0.0000000            0.0000000            0.0000000
 Quadrupole YY       :         -7.9396446            0.0000000           -7.9396446
 Quadrupole YZ       :          0.0000000            0.0000000            0.0000000
 Quadrupole ZZ       :        -29.6937849           21.0004812           -8.6933037
 Traceless XX        :          7.2513801           -7.0001604            0.2512197
 Traceless YY        :          7.2513801           -7.0001604            0.2512197
 Traceless ZZ        :        -14.5027602           14.0003208           -0.5024394

 ------------------------------------------------------------------------------------
  ==> Computing MBIS Charges <==

  Electron Count from Grid (Expected Number): 14.00000 (14.00000)
  Difference:  0.00000

  MBIS Charges: (a.u.)
   Center  Symbol  Z      Pop.       Charge
      1       N    7    7.000000   -0.000000
      2       N    7    7.000000   -0.000000

  MBIS Dipoles: [e a0]
   Center  Symbol  Z        X           Y           Z
      1       N    7    0.000000   -0.000000    0.013764
      2       N    7   -0.000000   -0.000000   -0.013764

  MBIS Quadrupoles: [e a0^2]
   Center  Symbol  Z      XX        XY        XZ        YY        YZ        ZZ
      1       N    7   -3.9698   -0.0000    0.0000   -3.9698    0.0000   -4.3129
      2       N    7   -3.9698    0.0000   -0.0000   -3.9698   -0.0000   -4.3129

  MBIS Octupoles: [e a0^3]
   Center  Symbol  Z      XXX       XXY       XXZ       XYY       XYZ       XZZ       YYY       YYZ       YZZ       ZZZ
      1       N    7   -0.0000   -0.0000   -0.0797   -0.0000    0.0000   -0.0000   -0.0000   -0.0797   -0.0000   -0.1340
      2       N    7   -0.0000   -0.0000    0.0797   -0.0000   -0.0000   -0.0000   -0.0000    0.0797   -0.0000    0.1340

  MBIS Radial Moments:
   Center  Symbol  Z      [a0^2]      [a0^3]      [a0^4]
      1       N    7   12.252581   25.745863   64.441496
      2       N    7   12.252581   25.745863   64.441496

  MBIS Valence Widths: [a0]
   Center  Symbol  Z     Width
      1       N    7    0.440225
      2       N    7    0.440225

*** tstop() called on Mac.lan at Sun Aug 10 17:06:52 2025
Module time:
	user time   =       9.69 seconds =       0.16 minutes
	system time =       2.41 seconds =       0.04 minutes
	total time  =          1 seconds =       0.02 minutes
Total time:
	user time   =      44.61 seconds =       0.74 minutes
	system time =       5.40 seconds =       0.09 minutes
	total time  =          5 seconds =       0.08 minutes

    Psi4 stopped on: Sunday, 10 August 2025 05:06PM
    Psi4 wall time for execution: 0:00:05.19

*** Psi4 exiting successfully. Buy a developer a beer!
