                               Psi4 1.9.1 release

  ==> Input File <==

--------------------------------------------------------------------------
molecule {
0 2
C           0.000000           0.000000           0.000000
H           0.000000           0.000000           1.644272
}

set {
basis              cc-pvtz
reference          uks
maxiter            500
DAMPING_PERCENTAGE 1
E_CONVERGENCE      1.0E-8
D_CONVERGENCE      1.0E-8
DIIS_MAX_VECS      400
MBIS_MAXITER       8000
guess              read
}

E, wfn = energy('b3lyp', restart_file='last_wfn', return_wfn=True)
properties('b3lyp','MBIS_CHARGES', wfn=wfn)
wfn.to_file('last_wfn')
--------------------------------------------------------------------------

    Molecular point group: c2v
  Charge       = 0
  Multiplicity = 2
  Basis Set: CC-PVTZ
    Blend: CC-PVTZ
  Basis Set: (CC-PVTZ AUX)
    Blend: CC-PVTZ-JKFIT
  @DF-UKS Final Energy:   -38.43895011328895
    Total Energy =                        -38.4389501132889535
 Dipole X            :          0.0000000            0.0000000            0.0000000
 Dipole Y            :          0.0000000            0.0000000            0.0000000
 Dipole Z            :         -1.2814645            1.4220254            0.1405609
 Magnitude           :                                                    0.1405609
    Molecular point group: c2v

    Geometry (in Angstrom), charge = 0, multiplicity = 2:

       Center              X                  Y                   Z               Mass
    ------------   -----------------  -----------------  -----------------  -----------------
         C            0.000000000000     0.000000000000    -0.127395508264    12.000000000000
         H            0.000000000000     0.000000000000     1.516876491736     1.007825032230

  Charge       = 0
  Multiplicity = 2
  Basis Set: CC-PVTZ
    Blend: CC-PVTZ
  Basis Set: (CC-PVTZ AUX)
    Blend: CC-PVTZ-JKFIT

    Orbital Energies [Eh]
    ---------------------

    Alpha Occupied:

       1A1   -10.331666     2A1    -0.594767     3A1    -0.307879
       1B1    -0.273849

    Alpha Virtual:

       1B2    -0.158817     4A1    -0.038774     5A1     0.257008
       2B1     0.281698     2B2     0.300757     6A1     0.311136
       7A1     0.442090     3B1     0.537003     3B2     0.538938
       1A2     0.649645     8A1     0.655343     9A1     0.791477
       4B1     0.888016     4B2     0.889724    10A1     1.184473
       5B1     1.884247     5B2     1.911374    11A1     2.034408
      12A1     2.415801     6B1     2.544062     6B2     2.546909
      13A1     2.579349     2A2     2.612250    14A1     2.617382
       7B1     2.627968     7B2     2.630630     3A2     2.869112
      15A1     2.881665     8B1     2.929004     8B2     2.946724
      16A1     3.186445     4A2     3.249391    17A1     3.249998
       9B2     3.556925     9B1     3.558208    18A1     3.609942
      10B2     3.823048    10B1     3.823975    19A1     4.011305
      20A1     4.980953

    Beta Occupied:

       1A1   -10.315388     2A1    -0.539460     3A1    -0.298460

    Beta Virtual:

       1B2    -0.141860     1B1    -0.093918     4A1    -0.029208
       5A1     0.253717     2B2     0.308002     6A1     0.321021
       2B1     0.336760     7A1     0.464741     3B2     0.537997
       3B1     0.553967     8A1     0.692237     1A2     0.693291
       9A1     0.802153     4B2     0.889791     4B1     0.909255
      10A1     1.188715     5B2     1.922353     5B1     1.966235
      11A1     2.046079    12A1     2.408642     6B2     2.551443
       6B1     2.582363    13A1     2.594851     2A2     2.651560
      14A1     2.656099     7B2     2.686850     7B1     2.687542
      15A1     2.945203     3A2     2.946260     8B2     2.956513
       8B1     3.000327    16A1     3.209193     4A2     3.243974
      17A1     3.244733     9B2     3.546695     9B1     3.554344
      18A1     3.635213    10B2     3.812926    10B1     3.822362
      19A1     4.003194    20A1     4.987871

    Final Occupation by Irrep:
             A1    A2    B1    B2
    DOCC [     3,    0,    0,    0 ]
    SOCC [     0,    0,    1,    0 ]
    NA   [     3,    0,    1,    0 ]
    NB   [     3,    0,    0,    0 ]

  @DF-UKS Final Energy:   -38.43895011486793

   => Energetics <=

    Nuclear Repulsion Energy =              1.9309842070046805
    One-Electron Energy =                 -54.8634228657448233
    Two-Electron Energy =                  18.9424737027475345
    DFT Exchange-Correlation Energy =      -4.4489851588753213
    Empirical Dispersion Energy =           0.0000000000000000
    VV10 Nonlocal Energy =                  0.0000000000000000
    Total Energy =                        -38.4389501148679287

  UHF NO Occupations:
  HONO-2 :    2 A1 1.9989977
  HONO-1 :    3 A1 1.9967361
  HONO-0 :    1 B1 1.0000000
  LUNO+0 :    4 A1 0.0032639
  LUNO+1 :    5 A1 0.0010023
  LUNO+2 :    6 A1 0.0000007
  LUNO+3 :    7 A1 0.0000000

Computation Completed

Properties will be evaluated at   0.000000,   0.000000,   0.000000 [a0]

Properties computed using the B3LYP density matrix

 Multipole Moments:

 ------------------------------------------------------------------------------------
     Multipole            Electronic (a.u.)      Nuclear  (a.u.)        Total (a.u.)
 ------------------------------------------------------------------------------------

 L = 1.  Multiply by 2.5417464519 to convert [e a0] to [Debye]
 Dipole X            :          0.0000000            0.0000000            0.0000000
 Dipole Y            :          0.0000000            0.0000000            0.0000000
 Dipole Z            :         -1.2814645            1.4220254            0.1405609
 Magnitude           :                                                    0.1405609

 L = 2.  Multiply by 1.3450342976 to convert [e a0^2] to [Debye ang]
 Quadrupole XX       :         -6.0200256            0.0000000           -6.0200256
 Quadrupole XY       :          0.0000000            0.0000000            0.0000000
 Quadrupole XZ       :          0.0000000            0.0000000            0.0000000
 Quadrupole YY       :         -4.5804888            0.0000000           -4.5804888
 Quadrupole YZ       :          0.0000000            0.0000000            0.0000000
 Quadrupole ZZ       :        -14.4779994            8.5644562           -5.9135432
 Traceless XX        :          2.3394790           -2.8548187           -0.5153397
 Traceless YY        :          3.7790158           -2.8548187            0.9241971
 Traceless ZZ        :         -6.1184948            5.7096374           -0.4088574

 ------------------------------------------------------------------------------------
  ==> Computing MBIS Charges <==

  Electron Count from Grid (Expected Number):  7.00000 ( 7.00000)
  Difference: -0.00000

  MBIS Charges: (a.u.)
   Center  Symbol  Z      Pop.       Charge
      1       C    6    5.966192    0.033808
      2       H    1    1.033808   -0.033808

  MBIS Dipoles: [e a0]
   Center  Symbol  Z        X           Y           Z
      1       C    6    0.000000    0.000000    0.145635
      2       H    1    0.000000    0.000000    0.099977

  MBIS Quadrupoles: [e a0^2]
   Center  Symbol  Z      XX        XY        XZ        YY        YZ        ZZ
      1       C    6   -5.0157   -0.0000    0.0000   -3.6447    0.0000   -5.1749
      2       H    1   -1.0043   -0.0000    0.0000   -0.9358    0.0000   -0.9659

  MBIS Octupoles: [e a0^3]
   Center  Symbol  Z      XXX       XXY       XXZ       XYY       XYZ       XZZ       YYY       YYZ       YZZ       ZZZ
      1       C    6   -0.0000    0.0000    0.1385   -0.0000    0.0000   -0.0000   -0.0000    0.0739   -0.0000    0.0665
      2       H    1    0.0000    0.0000    0.0489    0.0000   -0.0000    0.0000   -0.0000   -0.0380    0.0000    0.1228

  MBIS Radial Moments:
   Center  Symbol  Z      [a0^2]      [a0^3]      [a0^4]
      1       C    6   13.835247   34.318869   101.591423
      2       H    1    2.906017    6.935733   19.728851

  MBIS Valence Widths: [a0]
   Center  Symbol  Z     Width
      1       C    6    0.523793
      2       H    1    0.486951

*** tstop() called on Mac.lan at Sun Aug 10 17:09:53 2025
Module time:
	user time   =       2.65 seconds =       0.04 minutes
	system time =       1.68 seconds =       0.03 minutes
	total time  =          1 seconds =       0.02 minutes
Total time:
	user time   =      13.51 seconds =       0.23 minutes
	system time =       4.21 seconds =       0.07 minutes
	total time  =          2 seconds =       0.03 minutes

    Psi4 stopped on: Sunday, 10 August 2025 05:09PM
    Psi4 wall time for execution: 0:00:01.74

*** Psi4 exiting successfully. Buy a developer a beer!
