                               Psi4 1.9.1 release

  ==> Input File <==

--------------------------------------------------------------------------
molecule {
0 1
N           0.000000           0.000000           0.000000
N           0.000000           0.000000           0.975512
}

set {
basis              cc-pvtz
reference          uks
maxiter            500
DAMPING_PERCENTAGE 1
E_CONVERGENCE      1.0E-8
D_CONVERGENCE      1.0E-8
DIIS_MAX_VECS      400
MBIS_MAXITER       8000
guess              read
}

E, wfn = energy('b3lyp', restart_file='last_wfn', return_wfn=True)
properties('b3lyp','MBIS_CHARGES', wfn=wfn)
wfn.to_file('last_wfn')
--------------------------------------------------------------------------

    Molecular point group: d2h
  Charge       = 0
  Multiplicity = 1
  Basis Set: CC-PVTZ
    Blend: CC-PVTZ
  Basis Set: (CC-PVTZ AUX)
    Blend: CC-PVTZ-JKFIT
  @DF-UKS Final Energy:  -109.51770197263090
    Total Energy =                       -109.5177019726309027
 Dipole X            :          0.0000000            0.0000000            0.0000000
 Dipole Y            :          0.0000000            0.0000000            0.0000000
 Dipole Z            :          0.0000000           -0.0000000           -0.0000000
 Magnitude           :                                                    0.0000000
    Molecular point group: d2h

    Geometry (in Angstrom), charge = 0, multiplicity = 1:

       Center              X                  Y                   Z               Mass
    ------------   -----------------  -----------------  -----------------  -----------------
         N            0.000000000000     0.000000000000    -0.487756000000    14.003074004430
         N            0.000000000000     0.000000000000     0.487756000000    14.003074004430

  Charge       = 0
  Multiplicity = 1
  Basis Set: CC-PVTZ
    Blend: CC-PVTZ
  Basis Set: (CC-PVTZ AUX)
    Blend: CC-PVTZ-JKFIT

    Orbital Energies [Eh]
    ---------------------

    Alpha Occupied:

       1Ag   -14.384650     1B1u  -14.379197     2Ag    -1.197989
       2B1u   -0.521325     1B2u   -0.513383     1B3u   -0.513383
       3Ag    -0.440059

    Alpha Virtual:

       1B2g    0.034797     1B3g    0.034797     3B1u    0.304613
       2B3u    0.372781     2B2u    0.372781     4Ag     0.396851
       5Ag     0.496792     2B2g    0.551828     2B3g    0.551828
       4B1u    0.772254     6Ag     0.827700     1B1g    0.827700
       5B1u    1.034918     3B2u    1.175378     3B3u    1.175378
       6B1u    1.311830     1Au     1.311830     7Ag     1.648999
       3B3g    1.693921     3B2g    1.693921     7B1u    2.205283
       4B2u    2.714805     4B3u    2.714805     8Ag     3.006416
       4B3g    3.206422     4B2g    3.206422     8B1u    3.330877
       9Ag     3.507554     2B1g    3.507554     5B3u    3.536565
       5B2u    3.536565     6B2u    3.716821     6B3u    3.716821
      10Ag     4.084724     5B3g    4.181155     5B2g    4.181155
       6B3g    4.355565     6B2g    4.355565    11Ag     4.380073
       3B1g    4.380073     9B1u    4.491182     2Au     4.491183
      12Ag     4.924497    10B1u    4.932533     7B2u    5.178134
       7B3u    5.178134    11B1u    5.208372     3Au     5.208372
      12B1u    6.124896     7B3g    6.954669     7B2g    6.954669
      13Ag     7.408977    13B1u   20.555110

    Beta Occupied:

       1Ag   -14.384650     1B1u  -14.379197     2Ag    -1.197989
       2B1u   -0.521325     1B2u   -0.513383     1B3u   -0.513383
       3Ag    -0.440059

    Beta Virtual:

       1B2g    0.034797     1B3g    0.034797     3B1u    0.304613
       2B3u    0.372781     2B2u    0.372781     4Ag     0.396851
       5Ag     0.496792     2B2g    0.551828     2B3g    0.551828
       4B1u    0.772254     6Ag     0.827700     1B1g    0.827700
       5B1u    1.034918     3B2u    1.175378     3B3u    1.175378
       6B1u    1.311830     1Au     1.311830     7Ag     1.648999
       3B3g    1.693921     3B2g    1.693921     7B1u    2.205283
       4B2u    2.714805     4B3u    2.714805     8Ag     3.006416
       4B3g    3.206422     4B2g    3.206422     8B1u    3.330877
       9Ag     3.507554     2B1g    3.507554     5B3u    3.536565
       5B2u    3.536565     6B2u    3.716821     6B3u    3.716821
      10Ag     4.084724     5B3g    4.181155     5B2g    4.181155
       6B3g    4.355565     6B2g    4.355565    11Ag     4.380073
       3B1g    4.380073     9B1u    4.491182     2Au     4.491183
      12Ag     4.924497    10B1u    4.932533     7B2u    5.178134
       7B3u    5.178134    11B1u    5.208372     3Au     5.208372
      12B1u    6.124896     7B3g    6.954669     7B2g    6.954669
      13Ag     7.408977    13B1u   20.555110

    Final Occupation by Irrep:
             Ag   B1g   B2g   B3g    Au   B1u   B2u   B3u
    DOCC [     3,    0,    0,    0,    0,    2,    1,    1 ]
    SOCC [     0,    0,    0,    0,    0,    0,    0,    0 ]
    NA   [     3,    0,    0,    0,    0,    2,    1,    1 ]
    NB   [     3,    0,    0,    0,    0,    2,    1,    1 ]

  @DF-UKS Final Energy:  -109.51770197259356

   => Energetics <=

    Nuclear Repulsion Energy =             26.5805887808965977
    One-Electron Energy =                -200.2244383466973545
    Two-Electron Energy =                  75.3527632749361373
    DFT Exchange-Correlation Energy =     -11.2266156817289318
    Empirical Dispersion Energy =           0.0000000000000000
    VV10 Nonlocal Energy =                  0.0000000000000000
    Total Energy =                       -109.5177019725935565

  UHF NO Occupations:
  HONO-2 :    1B2u 2.0000000
  HONO-1 :    2B1u 2.0000000
  HONO-0 :    3 Ag 2.0000000
  LUNO+0 :    4 Ag 0.0000000
  LUNO+1 :    5 Ag 0.0000000
  LUNO+2 :    6 Ag 0.0000000
  LUNO+3 :    7 Ag 0.0000000

Computation Completed

Properties will be evaluated at   0.000000,   0.000000,   0.000000 [a0]

Properties computed using the B3LYP density matrix

 Multipole Moments:

 ------------------------------------------------------------------------------------
     Multipole            Electronic (a.u.)      Nuclear  (a.u.)        Total (a.u.)
 ------------------------------------------------------------------------------------

 L = 1.  Multiply by 2.5417464519 to convert [e a0] to [Debye]
 Dipole X            :          0.0000000            0.0000000            0.0000000
 Dipole Y            :          0.0000000            0.0000000            0.0000000
 Dipole Z            :          0.0000000           -0.0000000           -0.0000000
 Magnitude           :                                                    0.0000000

 L = 2.  Multiply by 1.3450342976 to convert [e a0^2] to [Debye ang]
 Quadrupole XX       :         -7.2413343            0.0000000           -7.2413343
 Quadrupole XY       :          0.0000000            0.0000000            0.0000000
 Quadrupole XZ       :          0.0000000            0.0000000            0.0000000
 Quadrupole YY       :         -7.2413343            0.0000000           -7.2413343
 Quadrupole YZ       :          0.0000000            0.0000000            0.0000000
 Quadrupole ZZ       :        -20.5540428           11.8940843           -8.6599586
 Traceless XX        :          4.4375695           -3.9646948            0.4728748
 Traceless YY        :          4.4375695           -3.9646948            0.4728748
 Traceless ZZ        :         -8.8751390            7.9293895           -0.9457495

 ------------------------------------------------------------------------------------
  ==> Computing MBIS Charges <==

  Electron Count from Grid (Expected Number): 14.00000 (14.00000)
  Difference: -0.00000

  MBIS Charges: (a.u.)
   Center  Symbol  Z      Pop.       Charge
      1       N    7    7.000000    0.000000
      2       N    7    7.000000    0.000000

  MBIS Dipoles: [e a0]
   Center  Symbol  Z        X           Y           Z
      1       N    7   -0.000000   -0.000000    0.091184
      2       N    7    0.000000    0.000000   -0.091184

  MBIS Quadrupoles: [e a0^2]
   Center  Symbol  Z      XX        XY        XZ        YY        YZ        ZZ
      1       N    7   -3.6207   -0.0000   -0.0000   -3.6207    0.0000   -4.1619
      2       N    7   -3.6207    0.0000    0.0000   -3.6207   -0.0000   -4.1619

  MBIS Octupoles: [e a0^3]
   Center  Symbol  Z      XXX       XXY       XXZ       XYY       XYZ       XZZ       YYY       YYZ       YZZ       ZZZ
      1       N    7   -0.0000   -0.0000    0.1164    0.0000   -0.0000    0.0000   -0.0000    0.1164   -0.0000    0.3801
      2       N    7    0.0000    0.0000   -0.1164    0.0000    0.0000    0.0000   -0.0000   -0.1164   -0.0000   -0.3801

  MBIS Radial Moments:
   Center  Symbol  Z      [a0^2]      [a0^3]      [a0^4]
      1       N    7   11.403220   23.193240   56.411923
      2       N    7   11.403220   23.193240   56.411923

  MBIS Valence Widths: [a0]
   Center  Symbol  Z     Width
      1       N    7    0.422730
      2       N    7    0.422730

*** tstop() called on Mac.lan at Sun Aug 10 17:05:47 2025
Module time:
	user time   =       3.90 seconds =       0.07 minutes
	system time =       2.04 seconds =       0.03 minutes
	total time  =          0 seconds =       0.00 minutes
Total time:
	user time   =      17.57 seconds =       0.29 minutes
	system time =       4.10 seconds =       0.07 minutes
	total time  =          2 seconds =       0.03 minutes

    Psi4 stopped on: Sunday, 10 August 2025 05:05PM
    Psi4 wall time for execution: 0:00:02.11

*** Psi4 exiting successfully. Buy a developer a beer!
