                               Psi4 1.9.1 release

  ==> Input File <==

--------------------------------------------------------------------------
molecule {
0 2
O           0.000000           0.000000           0.000000
H           0.000000           0.000000           0.853277
}

set {
basis              cc-pvtz
reference          uks
maxiter            500
DAMPING_PERCENTAGE 1
E_CONVERGENCE      1.0E-8
D_CONVERGENCE      1.0E-8
DIIS_MAX_VECS      400
MBIS_MAXITER       8000
guess              read
}

E, wfn = energy('b3lyp', restart_file='last_wfn', return_wfn=True)
properties('b3lyp','MBIS_CHARGES', wfn=wfn)
wfn.to_file('last_wfn')
--------------------------------------------------------------------------

    Molecular point group: c2v
  Charge       = 0
  Multiplicity = 2
  Basis Set: CC-PVTZ
    Blend: CC-PVTZ
  Basis Set: (CC-PVTZ AUX)
    Blend: CC-PVTZ-JKFIT
  @DF-UKS Final Energy:   -75.74683505196650
    Total Energy =                        -75.7468350519664995
 Dipole X            :          0.0000000            0.0000000            0.0000000
 Dipole Y            :          0.0000000            0.0000000            0.0000000
 Dipole Z            :         -0.1116142            0.7522634            0.6406492
 Magnitude           :                                                    0.6406492
    Molecular point group: c2v

    Geometry (in Angstrom), charge = 0, multiplicity = 2:

       Center              X                  Y                   Z               Mass
    ------------   -----------------  -----------------  -----------------  -----------------
         O            0.000000000000     0.000000000000    -0.050577373861    15.994914619570
         H            0.000000000000     0.000000000000     0.802699626139     1.007825032230

  Charge       = 0
  Multiplicity = 2
  Basis Set: CC-PVTZ
    Blend: CC-PVTZ
  Basis Set: (CC-PVTZ AUX)
    Blend: CC-PVTZ-JKFIT

    Orbital Energies [Eh]
    ---------------------

    Alpha Occupied:

       1A1   -19.187405     2A1    -1.057295     3A1    -0.495453
       1B1    -0.423252     1B2    -0.350448

    Alpha Virtual:

       4A1     0.047614     5A1     0.438726     6A1     0.505799
       2B1     0.528995     2B2     0.564581     3B1     0.705569
       3B2     0.723087     7A1     0.834741     8A1     1.399439
       1A2     1.415032     9A1     1.420273     4B1     1.777368
       4B2     1.815757    10A1     1.830932    11A1     2.523542
       2A2     3.231043    12A1     3.231209     5B1     3.367565
       5B2     3.402499     6B1     3.583324     6B2     3.622179
      13A1     3.799584     7B1     4.156400     7B2     4.188071
      14A1     4.480544    15A1     4.910451     8B1     5.062904
       8B2     5.063170     3A2     5.496658    16A1     5.497389
       4A2     6.131832    17A1     6.132017     9B1     6.308634
       9B2     6.365862    18A1     6.705514    10B1     6.992936
      10B2     7.037222    19A1     7.205023    20A1    11.328178

    Beta Occupied:

       1A1   -19.162353     2A1    -0.989809     3A1    -0.467318
       1B2    -0.324996

    Beta Virtual:

       1B1    -0.176312     4A1     0.053067     5A1     0.446769
       6A1     0.513234     2B2     0.575087     2B1     0.601417
       3B2     0.723029     3B1     0.723889     7A1     0.860165
       8A1     1.419667     1A2     1.467374     9A1     1.473714
       4B2     1.821702     4B1     1.826544    10A1     1.847412
      11A1     2.532498     2A2     3.241397    12A1     3.242278
       5B2     3.407256     5B1     3.417722     6B2     3.632431
       6B1     3.651209    13A1     3.805293     7B2     4.192209
       7B1     4.194274    14A1     4.511490    15A1     4.939974
       8B2     5.133101     8B1     5.136070     3A2     5.541382
      16A1     5.546348     4A2     6.223108    17A1     6.237419
       9B2     6.377865     9B1     6.394870    18A1     6.729100
      10B2     7.044377    10B1     7.050185    19A1     7.228009
      20A1    11.360447

    Final Occupation by Irrep:
             A1    A2    B1    B2
    DOCC [     3,    0,    0,    1 ]
    SOCC [     0,    0,    1,    0 ]
    NA   [     3,    0,    1,    1 ]
    NB   [     3,    0,    0,    1 ]

  @DF-UKS Final Energy:   -75.74683505223555

   => Energetics <=

    Nuclear Repulsion Energy =              4.9613638775684805
    One-Electron Energy =                -113.7541981525845642
    Two-Electron Energy =                  40.2883385673665373
    DFT Exchange-Correlation Energy =      -7.2423393445860071
    Empirical Dispersion Energy =           0.0000000000000000
    VV10 Nonlocal Energy =                  0.0000000000000000
    Total Energy =                        -75.7468350522355536

  UHF NO Occupations:
  HONO-2 :    2 A1 1.9998431
  HONO-1 :    3 A1 1.9993479
  HONO-0 :    1 B1 1.0000000
  LUNO+0 :    4 A1 0.0006521
  LUNO+1 :    5 A1 0.0001569
  LUNO+2 :    2 B2 0.0001486
  LUNO+3 :    6 A1 0.0000006

Computation Completed

Properties will be evaluated at   0.000000,   0.000000,   0.000000 [a0]

Properties computed using the B3LYP density matrix

 Multipole Moments:

 ------------------------------------------------------------------------------------
     Multipole            Electronic (a.u.)      Nuclear  (a.u.)        Total (a.u.)
 ------------------------------------------------------------------------------------

 L = 1.  Multiply by 2.5417464519 to convert [e a0] to [Debye]
 Dipole X            :          0.0000000            0.0000000            0.0000000
 Dipole Y            :          0.0000000            0.0000000            0.0000000
 Dipole Z            :         -0.1116142            0.7522634            0.6406492
 Magnitude           :                                                    0.6406492

 L = 2.  Multiply by 1.3450342976 to convert [e a0^2] to [Debye ang]
 Quadrupole XX       :         -3.9178663            0.0000000           -3.9178663
 Quadrupole XY       :          0.0000000            0.0000000            0.0000000
 Quadrupole XZ       :          0.0000000            0.0000000            0.0000000
 Quadrupole YY       :         -4.8061696            0.0000000           -4.8061696
 Quadrupole YZ       :          0.0000000            0.0000000            0.0000000
 Quadrupole ZZ       :         -5.8008757            2.3740127           -3.4268631
 Traceless XX        :          0.9237709           -0.7913376            0.1324334
 Traceless YY        :          0.0354676           -0.7913376           -0.7558699
 Traceless ZZ        :         -0.9592385            1.5826751            0.6234366

 ------------------------------------------------------------------------------------
  ==> Computing MBIS Charges <==

  Electron Count from Grid (Expected Number):  9.00000 ( 9.00000)
  Difference: -0.00000

  MBIS Charges: (a.u.)
   Center  Symbol  Z      Pop.       Charge
      1       O    8    8.405557   -0.405557
      2       H    1    0.594443    0.405557

  MBIS Dipoles: [e a0]
   Center  Symbol  Z        X           Y           Z
      1       O    8   -0.000000    0.000000   -0.037787
      2       H    1   -0.000000    0.000000    0.024493

  MBIS Quadrupoles: [e a0^2]
   Center  Symbol  Z      XX        XY        XZ        YY        YZ        ZZ
      1       O    8   -3.6859    0.0000   -0.0000   -4.5430    0.0000   -4.1926
      2       H    1   -0.2319   -0.0000   -0.0000   -0.2632    0.0000   -0.2453

  MBIS Octupoles: [e a0^3]
   Center  Symbol  Z      XXX       XXY       XXZ       XYY       XYZ       XZZ       YYY       YYZ       YZZ       ZZZ
      1       O    8   -0.0000   -0.0000    0.0019   -0.0000   -0.0000   -0.0000   -0.0000   -0.0308    0.0000   -0.2318
      2       H    1   -0.0000   -0.0000   -0.0030   -0.0000   -0.0000   -0.0000    0.0000    0.0052   -0.0000    0.0069

  MBIS Radial Moments:
   Center  Symbol  Z      [a0^2]      [a0^3]      [a0^4]
      1       O    8   12.421529   23.763929   54.334902
      2       H    1    0.740352    1.190041    2.289409

  MBIS Valence Widths: [a0]
   Center  Symbol  Z     Width
      1       O    8    0.392419
      2       H    1    0.322849

*** tstop() called on Mac.lan at Sun Aug 10 17:10:36 2025
Module time:
	user time   =       3.05 seconds =       0.05 minutes
	system time =       2.46 seconds =       0.04 minutes
	total time  =          1 seconds =       0.02 minutes
Total time:
	user time   =      12.99 seconds =       0.22 minutes
	system time =       4.75 seconds =       0.08 minutes
	total time  =          2 seconds =       0.03 minutes

    Psi4 stopped on: Sunday, 10 August 2025 05:10PM
    Psi4 wall time for execution: 0:00:01.73

*** Psi4 exiting successfully. Buy a developer a beer!
