                               Psi4 1.9.1 release

  ==> Input File <==

--------------------------------------------------------------------------
molecule {
0 2
O           0.000000           0.000000           0.000000
N           0.000000           0.000000           1.340062
}

set {
basis              cc-pvtz
reference          uks
maxiter            500
DAMPING_PERCENTAGE 1
E_CONVERGENCE      1.0E-8
D_CONVERGENCE      1.0E-8
DIIS_MAX_VECS      400
MBIS_MAXITER       8000
guess              read
}

E, wfn = energy('b3lyp', restart_file='last_wfn', return_wfn=True)
properties('b3lyp','MBIS_CHARGES', wfn=wfn)
wfn.to_file('last_wfn')
--------------------------------------------------------------------------

    Molecular point group: c2v
  Charge       = 0
  Multiplicity = 2
  Basis Set: CC-PVTZ
    Blend: CC-PVTZ
  Basis Set: (CC-PVTZ AUX)
    Blend: CC-PVTZ-JKFIT
  @DF-UKS Final Energy:  -129.89284167274505
    Total Energy =                       -129.8928416727450497
 Dipole X            :          0.0000000            0.0000000            0.0000000
 Dipole Y            :          0.0000000            0.0000000            0.0000000
 Dipole Z            :          0.1504122           -0.0050811            0.1453312
 Magnitude           :                                                    0.1453312
    Molecular point group: c2v

    Geometry (in Angstrom), charge = 0, multiplicity = 2:

       Center              X                  Y                   Z               Mass
    ------------   -----------------  -----------------  -----------------  -----------------
         O            0.000000000000     0.000000000000    -0.625541518524    15.994914619570
         N            0.000000000000     0.000000000000     0.714520481476    14.003074004430

  Charge       = 0
  Multiplicity = 2
  Basis Set: CC-PVTZ
    Blend: CC-PVTZ
  Basis Set: (CC-PVTZ AUX)
    Blend: CC-PVTZ-JKFIT

    Orbital Energies [Eh]
    ---------------------

    Alpha Occupied:

       1A1   -19.273155     2A1   -14.500750     3A1    -1.126410
       4A1    -0.729906     1B1    -0.484222     5A1    -0.474487
       1B2    -0.451535     2B1    -0.281568

    Alpha Virtual:

       2B2    -0.171547     6A1     0.124574     7A1     0.399547
       3B1     0.417073     3B2     0.425441     8A1     0.467896
       9A1     0.559950     4B1     0.595409     4B2     0.601702
       1A2     0.936299    10A1     0.938124     5B2     1.033543
       5B1     1.034271    11A1     1.160736     2A2     1.478421
      12A1     1.479502    13A1     1.528356     6B1     1.890328
       6B2     1.891044    14A1     2.075405     7B1     2.759979
       7B2     2.778045    15A1     3.025501     8B1     3.442184
       8B2     3.450535     3A2     3.744833    16A1     3.746681
       9B1     3.783508     9B2     3.784059    17A1     3.850095
      10B1     3.984841    10B2     3.985807    18A1     4.270868
       4A2     4.317384    19A1     4.322728    20A1     4.559889
      11B1     4.590841    11B2     4.599490    12B1     5.048440
      12B2     5.048567     5A2     5.261290    21A1     5.262297
      22A1     5.526368    13B1     5.900622    13B2     5.900815
       6A2     6.134610    23A1     6.136903    24A1     6.427404
      14B1     6.624563    14B2     6.626428    25A1     7.331194
      26A1     9.702857

    Beta Occupied:

       1A1   -19.265132     2A1   -14.482766     3A1    -1.105171
       4A1    -0.687355     5A1    -0.456299     1B2    -0.445250
       1B1    -0.410162

    Beta Virtual:

       2B2    -0.154060     2B1    -0.111330     6A1     0.142181
       7A1     0.407250     3B2     0.434672     3B1     0.457728
       8A1     0.482793     9A1     0.565587     4B2     0.601968
       4B1     0.619102     1A2     0.968278    10A1     0.968300
       5B2     1.036883     5B1     1.062256    11A1     1.169032
       2A2     1.495743    12A1     1.495748    13A1     1.542778
       6B2     1.892539     6B1     1.915832    14A1     2.085325
       7B2     2.796421     7B1     2.836025    15A1     3.038378
       8B2     3.452522     8B1     3.482561    16A1     3.773151
       3A2     3.774965     9B2     3.835485     9B1     3.835586
      17A1     3.872633    10B2     3.991447    10B1     4.022616
      18A1     4.281986    19A1     4.390642     4A2     4.392058
      20A1     4.588783    11B2     4.609607    11B1     4.646635
      12B2     5.066706    12B1     5.066716    21A1     5.275407
       5A2     5.275613    22A1     5.540168    13B2     5.900726
      13B1     5.928858    23A1     6.163880     6A2     6.164091
      24A1     6.436577    14B2     6.625144    14B1     6.653225
      25A1     7.346661    26A1     9.719350

    Final Occupation by Irrep:
             A1    A2    B1    B2
    DOCC [     5,    0,    1,    1 ]
    SOCC [     0,    0,    1,    0 ]
    NA   [     5,    0,    2,    1 ]
    NB   [     5,    0,    1,    1 ]

  @DF-UKS Final Energy:  -129.89284166990444

   => Energetics <=

    Nuclear Repulsion Energy =             22.1138453276937987
    One-Electron Energy =                -220.9930296848506259
    Two-Electron Energy =                  81.2850805717123137
    DFT Exchange-Correlation Energy =     -12.2987378844599444
    Empirical Dispersion Energy =           0.0000000000000000
    VV10 Nonlocal Energy =                  0.0000000000000000
    Total Energy =                       -129.8928416699044419

  UHF NO Occupations:
  HONO-2 :    1 B1 1.9989279
  HONO-1 :    1 B2 1.9978604
  HONO-0 :    2 B1 1.0000000
  LUNO+0 :    2 B2 0.0021396
  LUNO+1 :    3 B1 0.0010721
  LUNO+2 :    6 A1 0.0005703
  LUNO+3 :    7 A1 0.0000949

Computation Completed

Properties will be evaluated at   0.000000,   0.000000,   0.000000 [a0]

Properties computed using the B3LYP density matrix

 Multipole Moments:

 ------------------------------------------------------------------------------------
     Multipole            Electronic (a.u.)      Nuclear  (a.u.)        Total (a.u.)
 ------------------------------------------------------------------------------------

 L = 1.  Multiply by 2.5417464519 to convert [e a0] to [Debye]
 Dipole X            :          0.0000000            0.0000000            0.0000000
 Dipole Y            :          0.0000000            0.0000000            0.0000000
 Dipole Z            :          0.1504123           -0.0050811            0.1453313
 Magnitude           :                                                    0.1453313

 L = 2.  Multiply by 1.3450342976 to convert [e a0^2] to [Debye ang]
 Quadrupole XX       :         -8.1378016            0.0000000           -8.1378016
 Quadrupole XY       :          0.0000000            0.0000000            0.0000000
 Quadrupole XZ       :          0.0000000            0.0000000            0.0000000
 Quadrupole YY       :         -7.3745763            0.0000000           -7.3745763
 Quadrupole YZ       :          0.0000000            0.0000000            0.0000000
 Quadrupole ZZ       :        -32.1185700           23.9411120           -8.1774580
 Traceless XX        :          7.7391810           -7.9803707           -0.2411896
 Traceless YY        :          8.5024063           -7.9803707            0.5220357
 Traceless ZZ        :        -16.2415874           15.9607413           -0.2808460

 ------------------------------------------------------------------------------------
  ==> Computing MBIS Charges <==

  Electron Count from Grid (Expected Number): 15.00000 (15.00000)
  Difference: -0.00000

  MBIS Charges: (a.u.)
   Center  Symbol  Z      Pop.       Charge
      1       O    8    8.105662   -0.105662
      2       N    7    6.894338    0.105662

  MBIS Dipoles: [e a0]
   Center  Symbol  Z        X           Y           Z
      1       O    8    0.000000   -0.000000   -0.010119
      2       N    7    0.000000    0.000000   -0.112123

  MBIS Quadrupoles: [e a0^2]
   Center  Symbol  Z      XX        XY        XZ        YY        YZ        ZZ
      1       O    8   -3.9664    0.0000    0.0000   -3.7051   -0.0000   -3.8533
      2       N    7   -4.1714   -0.0000    0.0000   -3.6695    0.0000   -4.0903

  MBIS Octupoles: [e a0^3]
   Center  Symbol  Z      XXX       XXY       XXZ       XYY       XYZ       XZZ       YYY       YYZ       YZZ       ZZZ
      1       O    8   -0.0000   -0.0000    0.0285   -0.0000    0.0000    0.0000   -0.0000   -0.0328   -0.0000   -0.2215
      2       N    7   -0.0000   -0.0000   -0.1127   -0.0000   -0.0000    0.0000   -0.0000    0.0630   -0.0000    0.1720

  MBIS Radial Moments:
   Center  Symbol  Z      [a0^2]      [a0^3]      [a0^4]
      1       O    8   11.524721   21.668345   48.802748
      2       N    7   11.931241   25.050782   62.694935

  MBIS Valence Widths: [a0]
   Center  Symbol  Z     Width
      1       O    8    0.386886
      2       N    7    0.438569

*** tstop() called on Mac.lan at Sun Aug 10 17:20:56 2025
Module time:
	user time   =       3.63 seconds =       0.06 minutes
	system time =       2.18 seconds =       0.04 minutes
	total time  =          1 seconds =       0.02 minutes
Total time:
	user time   =      19.21 seconds =       0.32 minutes
	system time =       4.68 seconds =       0.08 minutes
	total time  =          3 seconds =       0.05 minutes

    Psi4 stopped on: Sunday, 10 August 2025 05:20PM
    Psi4 wall time for execution: 0:00:02.30

*** Psi4 exiting successfully. Buy a developer a beer!
