                               Psi4 1.9.1 release

  ==> Input File <==

--------------------------------------------------------------------------
molecule {
0 1
O           0.000000           0.000000           0.000000
C           0.000000           0.000000           0.737730
}

set {
basis              cc-pvtz
reference          uks
maxiter            500
DAMPING_PERCENTAGE 1
E_CONVERGENCE      1.0E-8
D_CONVERGENCE      1.0E-8
DIIS_MAX_VECS      400
MBIS_MAXITER       8000
guess              read
}

E, wfn = energy('b3lyp', restart_file='last_wfn', return_wfn=True)
properties('b3lyp','MBIS_CHARGES', wfn=wfn)
wfn.to_file('last_wfn')
--------------------------------------------------------------------------

    Molecular point group: c2v
  Charge       = 0
  Multiplicity = 1
  Basis Set: CC-PVTZ
    Blend: CC-PVTZ
  Basis Set: (CC-PVTZ AUX)
    Blend: CC-PVTZ-JKFIT
  @DF-UKS Final Energy:  -112.39315303750404
    Total Energy =                       -112.3931530375040353
 Dipole X            :          0.0000000            0.0000000            0.0000000
 Dipole Y            :          0.0000000            0.0000000            0.0000000
 Dipole Z            :         -0.5009864           -0.0015195           -0.5025058
 Magnitude           :                                                    0.5025058
    Molecular point group: c2v

    Geometry (in Angstrom), charge = 0, multiplicity = 1:

       Center              X                  Y                   Z               Mass
    ------------   -----------------  -----------------  -----------------  -----------------
         O            0.000000000000     0.000000000000    -0.316227433457    15.994914619570
         C            0.000000000000     0.000000000000     0.421502566543    12.000000000000

  Charge       = 0
  Multiplicity = 1
  Basis Set: CC-PVTZ
    Blend: CC-PVTZ
  Basis Set: (CC-PVTZ AUX)
    Blend: CC-PVTZ-JKFIT

    Orbital Energies [Eh]
    ---------------------

    Alpha Occupied:

       1A1   -19.203805     2A1   -10.194284     3A1    -1.316368
       1B1    -0.677420     1B2    -0.677420     4A1    -0.571264
       5A1    -0.332586

    Alpha Virtual:

       2B1     0.125181     2B2     0.125181     6A1     0.170208
       7A1     0.302627     3B2     0.316689     3B1     0.316689
       8A1     0.547411     4B1     0.616752     4B2     0.616752
       1A2     0.634095     9A1     0.634095    10A1     0.871463
       5B1     1.055746     5B2     1.055746    11A1     1.315244
      12A1     1.621294     2A2     1.621294     6B2     1.629143
       6B1     1.629143    13A1     1.785611    14A1     2.278497
       7B1     2.295061     7B2     2.295061     8B2     2.635361
       8B1     2.635361    15A1     2.773384     3A2     2.883477
      16A1     2.883478     9B1     3.067165     9B2     3.067165
       4A2     3.162201    17A1     3.162201    18A1     3.193899
      10B2     3.932111    10B1     3.932111    11B2     4.244180
      11B1     4.244180    19A1     4.330888    12B2     5.236515
      12B1     5.236515    20A1     5.790048    21A1     6.204168
       5A2     6.204169    22A1     6.397801     6A2     6.397801
      13B2     6.567781    13B1     6.567781    23A1     6.578292
      24A1     7.400925    14B1     7.673480    14B2     7.673480
      25A1    10.073380    26A1    17.333891

    Beta Occupied:

       1A1   -19.203805     2A1   -10.194284     3A1    -1.316368
       1B1    -0.677420     1B2    -0.677420     4A1    -0.571264
       5A1    -0.332586

    Beta Virtual:

       2B1     0.125181     2B2     0.125181     6A1     0.170208
       7A1     0.302627     3B2     0.316689     3B1     0.316689
       8A1     0.547411     4B1     0.616752     4B2     0.616752
       1A2     0.634095     9A1     0.634095    10A1     0.871463
       5B1     1.055746     5B2     1.055746    11A1     1.315244
      12A1     1.621294     2A2     1.621294     6B2     1.629143
       6B1     1.629143    13A1     1.785611    14A1     2.278497
       7B1     2.295061     7B2     2.295061     8B2     2.635361
       8B1     2.635361    15A1     2.773384     3A2     2.883477
      16A1     2.883478     9B1     3.067165     9B2     3.067165
       4A2     3.162201    17A1     3.162201    18A1     3.193899
      10B2     3.932111    10B1     3.932111    11B2     4.244180
      11B1     4.244180    19A1     4.330888    12B2     5.236515
      12B1     5.236515    20A1     5.790048    21A1     6.204168
       5A2     6.204169    22A1     6.397801     6A2     6.397801
      13B2     6.567781    13B1     6.567781    23A1     6.578292
      24A1     7.400925    14B1     7.673480    14B2     7.673480
      25A1    10.073380    26A1    17.333891

    Final Occupation by Irrep:
             A1    A2    B1    B2
    DOCC [     5,    0,    1,    1 ]
    SOCC [     0,    0,    0,    0 ]
    NA   [     5,    0,    1,    1 ]
    NB   [     5,    0,    1,    1 ]

  @DF-UKS Final Energy:  -112.39315303746260

   => Energetics <=

    Nuclear Repulsion Energy =             34.4306265329592307
    One-Electron Energy =                -219.2389727881718500
    Two-Electron Energy =                  84.2049454269508146
    DFT Exchange-Correlation Energy =     -11.7897522092007794
    Empirical Dispersion Energy =           0.0000000000000000
    VV10 Nonlocal Energy =                  0.0000000000000000
    Total Energy =                       -112.3931530374625964

  UHF NO Occupations:
  HONO-2 :    4 A1 2.0000000
  HONO-1 :    1 B1 2.0000000
  HONO-0 :    5 A1 2.0000000
  LUNO+0 :    6 A1 0.0000000
  LUNO+1 :    7 A1 0.0000000
  LUNO+2 :    8 A1 0.0000000
  LUNO+3 :    9 A1 0.0000000

Computation Completed

Properties will be evaluated at   0.000000,   0.000000,   0.000000 [a0]

Properties computed using the B3LYP density matrix

 Multipole Moments:

 ------------------------------------------------------------------------------------
     Multipole            Electronic (a.u.)      Nuclear  (a.u.)        Total (a.u.)
 ------------------------------------------------------------------------------------

 L = 1.  Multiply by 2.5417464519 to convert [e a0] to [Debye]
 Dipole X            :          0.0000000            0.0000000            0.0000000
 Dipole Y            :          0.0000000            0.0000000            0.0000000
 Dipole Z            :         -0.5009864           -0.0015195           -0.5025058
 Magnitude           :                                                    0.5025058

 L = 2.  Multiply by 1.3450342976 to convert [e a0^2] to [Debye ang]
 Quadrupole XX       :         -6.6948207            0.0000000           -6.6948207
 Quadrupole XY       :          0.0000000            0.0000000            0.0000000
 Quadrupole XZ       :          0.0000000            0.0000000            0.0000000
 Quadrupole YY       :         -6.6948207            0.0000000           -6.6948207
 Quadrupole YZ       :          0.0000000            0.0000000            0.0000000
 Quadrupole ZZ       :        -15.3298404            6.6635527           -8.6662877
 Traceless XX        :          2.8783399           -2.2211842            0.6571557
 Traceless YY        :          2.8783399           -2.2211842            0.6571557
 Traceless ZZ        :         -5.7566798            4.4423685           -1.3143113

 ------------------------------------------------------------------------------------
  ==> Computing MBIS Charges <==

  Electron Count from Grid (Expected Number): 14.00000 (14.00000)
  Difference:  0.00000

  MBIS Charges: (a.u.)
   Center  Symbol  Z      Pop.       Charge
      1       O    8    7.873454    0.126546
      2       C    6    6.126548   -0.126548

  MBIS Dipoles: [e a0]
   Center  Symbol  Z        X           Y           Z
      1       O    8   -0.000000   -0.000000   -0.004887
      2       C    6   -0.000000   -0.000000   -0.321197

  MBIS Quadrupoles: [e a0^2]
   Center  Symbol  Z      XX        XY        XZ        YY        YZ        ZZ
      1       O    8   -2.8258    0.0000    0.0000   -2.8258    0.0000   -3.2564
      2       C    6   -3.8690   -0.0000    0.0000   -3.8690    0.0000   -4.8690

  MBIS Octupoles: [e a0^3]
   Center  Symbol  Z      XXX       XXY       XXZ       XYY       XYZ       XZZ       YYY       YYZ       YZZ       ZZZ
      1       O    8    0.0000   -0.0000    0.0592   -0.0000   -0.0000   -0.0000   -0.0000    0.0592    0.0000    0.2992
      2       C    6   -0.0000    0.0000   -0.6200   -0.0000    0.0000   -0.0000    0.0000   -0.6200    0.0000   -1.5464

  MBIS Radial Moments:
   Center  Symbol  Z      [a0^2]      [a0^3]      [a0^4]
      1       O    8    8.908055   14.876191   29.922742
      2       C    6   12.606933   29.762401   83.690017

  MBIS Valence Widths: [a0]
   Center  Symbol  Z     Width
      1       O    8    0.343879
      2       C    6    0.485494

*** tstop() called on Mac.lan at Sun Aug 10 17:17:20 2025
Module time:
	user time   =       4.09 seconds =       0.07 minutes
	system time =       1.88 seconds =       0.03 minutes
	total time  =          1 seconds =       0.02 minutes
Total time:
	user time   =      17.91 seconds =       0.30 minutes
	system time =       3.84 seconds =       0.06 minutes
	total time  =          2 seconds =       0.03 minutes

    Psi4 stopped on: Sunday, 10 August 2025 05:17PM
    Psi4 wall time for execution: 0:00:02.14

*** Psi4 exiting successfully. Buy a developer a beer!
