                               Psi4 1.9.1 release

  ==> Input File <==

--------------------------------------------------------------------------
molecule {
0 1
N           0.000000           0.000000           0.000000
N           0.000000           0.000000           0.714930
}

set {
basis              cc-pvtz
reference          uks
maxiter            500
DAMPING_PERCENTAGE 1
E_CONVERGENCE      1.0E-8
D_CONVERGENCE      1.0E-8
DIIS_MAX_VECS      400
MBIS_MAXITER       8000
guess              read
}

E, wfn = energy('b3lyp', restart_file='last_wfn', return_wfn=True)
properties('b3lyp','MBIS_CHARGES', wfn=wfn)
wfn.to_file('last_wfn')
--------------------------------------------------------------------------

    Molecular point group: d2h
  Charge       = 0
  Multiplicity = 1
  Basis Set: CC-PVTZ
    Blend: CC-PVTZ
  Basis Set: (CC-PVTZ AUX)
    Blend: CC-PVTZ-JKFIT
  @DF-UKS Final Energy:  -108.46169121301359
    Total Energy =                       -108.4616912130135944
 Dipole X            :          0.0000000            0.0000000            0.0000000
 Dipole Y            :          0.0000000            0.0000000            0.0000000
 Dipole Z            :          0.0000000            0.0000000            0.0000000
 Magnitude           :                                                    0.0000000
    Molecular point group: d2h

    Geometry (in Angstrom), charge = 0, multiplicity = 1:

       Center              X                  Y                   Z               Mass
    ------------   -----------------  -----------------  -----------------  -----------------
         N            0.000000000000     0.000000000000    -0.357465000000    14.003074004430
         N            0.000000000000     0.000000000000     0.357465000000    14.003074004430

  Charge       = 0
  Multiplicity = 1
  Basis Set: CC-PVTZ
    Blend: CC-PVTZ
  Basis Set: (CC-PVTZ AUX)
    Blend: CC-PVTZ-JKFIT

    Orbital Energies [Eh]
    ---------------------

    Alpha Occupied:

       1Ag   -14.363141     1B1u  -14.287107     2Ag    -1.252985
       1B2u   -0.660051     1B3u   -0.660051     3Ag    -0.451535
       2B1u   -0.433253

    Alpha Virtual:

       1B3g    0.192100     1B2g    0.192100     3B1u    0.307285
       2B3u    0.326461     2B2u    0.326461     4Ag     0.371824
       5Ag     0.538838     2B3g    0.644985     2B2g    0.644985
       1B1g    0.836682     6Ag     0.836682     4B1u    0.879816
       3B3u    1.346622     3B2u    1.346622     1Au     1.407713
       5B1u    1.407713     6B1u    1.421334     7Ag     1.526092
       3B3g    1.723513     3B2g    1.723513     4B3u    2.511888
       4B2u    2.511888     7B1u    3.164809     8Ag     3.233248
       5B3u    3.463317     5B2u    3.463317     4B3g    3.493235
       4B2g    3.493235     9Ag     3.607594     2B1g    3.607594
       8B1u    3.687427     6B2u    4.064376     6B3u    4.064376
      10Ag     4.263521     2Au     4.311871     9B1u    4.311872
       5B2g    4.464713     5B3g    4.464713     6B3g    4.481917
       6B2g    4.481917     3B1g    4.550302    11Ag     4.550302
      12Ag     4.761356    10B1u    5.336831     7B3u    5.862771
       7B2u    5.862771    11B1u    6.190321     3Au     6.190321
       7B3g    8.041205     7B2g    8.041205    12B1u    8.186729
      13Ag     8.888073    13B1u   28.346363

    Beta Occupied:

       1Ag   -14.363141     1B1u  -14.287107     2Ag    -1.252985
       1B2u   -0.660051     1B3u   -0.660051     3Ag    -0.451535
       2B1u   -0.433253

    Beta Virtual:

       1B3g    0.192100     1B2g    0.192100     3B1u    0.307285
       2B3u    0.326461     2B2u    0.326461     4Ag     0.371824
       5Ag     0.538838     2B3g    0.644985     2B2g    0.644985
       1B1g    0.836682     6Ag     0.836682     4B1u    0.879816
       3B3u    1.346622     3B2u    1.346622     1Au     1.407713
       5B1u    1.407713     6B1u    1.421334     7Ag     1.526092
       3B3g    1.723513     3B2g    1.723513     4B3u    2.511888
       4B2u    2.511888     7B1u    3.164809     8Ag     3.233248
       5B3u    3.463317     5B2u    3.463317     4B3g    3.493235
       4B2g    3.493235     9Ag     3.607594     2B1g    3.607594
       8B1u    3.687427     6B2u    4.064376     6B3u    4.064376
      10Ag     4.263521     2Au     4.311871     9B1u    4.311872
       5B2g    4.464713     5B3g    4.464713     6B3g    4.481917
       6B2g    4.481917     3B1g    4.550302    11Ag     4.550302
      12Ag     4.761356    10B1u    5.336831     7B3u    5.862771
       7B2u    5.862771    11B1u    6.190321     3Au     6.190321
       7B3g    8.041205     7B2g    8.041205    12B1u    8.186729
      13Ag     8.888073    13B1u   28.346363

    Final Occupation by Irrep:
             Ag   B1g   B2g   B3g    Au   B1u   B2u   B3u
    DOCC [     3,    0,    0,    0,    0,    2,    1,    1 ]
    SOCC [     0,    0,    0,    0,    0,    0,    0,    0 ]
    NA   [     3,    0,    0,    0,    0,    2,    1,    1 ]
    NB   [     3,    0,    0,    0,    0,    2,    1,    1 ]

  @DF-UKS Final Energy:  -108.46169121265508

   => Energetics <=

    Nuclear Repulsion Energy =             36.2688421563369872
    One-Electron Energy =                -216.8363591097220251
    Two-Electron Energy =                  83.8200995016818950
    DFT Exchange-Correlation Energy =     -11.7142737609519241
    Empirical Dispersion Energy =           0.0000000000000000
    VV10 Nonlocal Energy =                  0.0000000000000000
    Total Energy =                       -108.4616912126550829

  UHF NO Occupations:
  HONO-2 :    3 Ag 2.0000000
  HONO-1 :    1B3u 2.0000000
  HONO-0 :    2B1u 2.0000000
  LUNO+0 :    3B1u 0.0000000
  LUNO+1 :    4B1u 0.0000000
  LUNO+2 :    4 Ag 0.0000000
  LUNO+3 :    5B1u 0.0000000

Computation Completed

Properties will be evaluated at   0.000000,   0.000000,   0.000000 [a0]

Properties computed using the B3LYP density matrix

 Multipole Moments:

 ------------------------------------------------------------------------------------
     Multipole            Electronic (a.u.)      Nuclear  (a.u.)        Total (a.u.)
 ------------------------------------------------------------------------------------

 L = 1.  Multiply by 2.5417464519 to convert [e a0] to [Debye]
 Dipole X            :          0.0000000            0.0000000            0.0000000
 Dipole Y            :          0.0000000            0.0000000            0.0000000
 Dipole Z            :          0.0000000            0.0000000            0.0000000
 Magnitude           :                                                    0.0000000

 L = 2.  Multiply by 1.3450342976 to convert [e a0^2] to [Debye ang]
 Quadrupole XX       :         -6.4500019            0.0000000           -6.4500019
 Quadrupole XY       :          0.0000000            0.0000000            0.0000000
 Quadrupole XZ       :          0.0000000            0.0000000            0.0000000
 Quadrupole YY       :         -6.4500019            0.0000000           -6.4500019
 Quadrupole YZ       :          0.0000000            0.0000000            0.0000000
 Quadrupole ZZ       :        -14.7382553            6.3884106           -8.3498447
 Traceless XX        :          2.7627511           -2.1294702            0.6332809
 Traceless YY        :          2.7627511           -2.1294702            0.6332809
 Traceless ZZ        :         -5.5255023            4.2589404           -1.2665619

 ------------------------------------------------------------------------------------
  ==> Computing MBIS Charges <==

  Electron Count from Grid (Expected Number): 14.00000 (14.00000)
  Difference: -0.00000

  MBIS Charges: (a.u.)
   Center  Symbol  Z      Pop.       Charge
      1       N    7    7.000000    0.000000
      2       N    7    7.000000    0.000000

  MBIS Dipoles: [e a0]
   Center  Symbol  Z        X           Y           Z
      1       N    7    0.000000   -0.000000    0.147861
      2       N    7    0.000000    0.000000   -0.147861

  MBIS Quadrupoles: [e a0^2]
   Center  Symbol  Z      XX        XY        XZ        YY        YZ        ZZ
      1       N    7   -3.2250   -0.0000   -0.0000   -3.2250   -0.0000   -3.9752
      2       N    7   -3.2250   -0.0000    0.0000   -3.2250    0.0000   -3.9752

  MBIS Octupoles: [e a0^3]
   Center  Symbol  Z      XXX       XXY       XXZ       XYY       XYZ       XZZ       YYY       YYZ       YZZ       ZZZ
      1       N    7    0.0000   -0.0000    0.2557    0.0000   -0.0000    0.0000   -0.0000    0.2557    0.0000    0.8147
      2       N    7    0.0000   -0.0000   -0.2557   -0.0000    0.0000    0.0000    0.0000   -0.2557    0.0000   -0.8147

  MBIS Radial Moments:
   Center  Symbol  Z      [a0^2]      [a0^3]      [a0^4]
      1       N    7   10.425160   20.594437   49.062385
      2       N    7   10.425160   20.594437   49.062385

  MBIS Valence Widths: [a0]
   Center  Symbol  Z     Width
      1       N    7    0.400934
      2       N    7    0.400934

*** tstop() called on Mac.lan at Sun Aug 10 17:06:19 2025
Module time:
	user time   =       4.08 seconds =       0.07 minutes
	system time =       2.19 seconds =       0.04 minutes
	total time  =          1 seconds =       0.02 minutes
Total time:
	user time   =      16.56 seconds =       0.28 minutes
	system time =       4.55 seconds =       0.08 minutes
	total time  =          2 seconds =       0.03 minutes

    Psi4 stopped on: Sunday, 10 August 2025 05:06PM
    Psi4 wall time for execution: 0:00:02.05

*** Psi4 exiting successfully. Buy a developer a beer!
