                               Psi4 1.9.1 release

  ==> Input File <==

--------------------------------------------------------------------------
molecule {
0 3
C           0.000000           0.000000           0.000000
C           0.000000           0.000000           1.833159
}

set {
basis              cc-pvtz
reference          uks
maxiter            500
DAMPING_PERCENTAGE 1
E_CONVERGENCE      1.0E-8
D_CONVERGENCE      1.0E-8
DIIS_MAX_VECS      400
MBIS_MAXITER       8000
guess              read
}

E, wfn = energy('b3lyp', restart_file='last_wfn', return_wfn=True)
properties('b3lyp','MBIS_CHARGES', wfn=wfn)
wfn.to_file('last_wfn')
--------------------------------------------------------------------------

    Molecular point group: d2h
  Charge       = 0
  Multiplicity = 3
  Basis Set: CC-PVTZ
    Blend: CC-PVTZ
  Basis Set: (CC-PVTZ AUX)
    Blend: CC-PVTZ-JKFIT
  @DF-UKS Final Energy:   -75.81960277118598
    Total Energy =                        -75.8196027711859699
 Dipole X            :          0.0000000            0.0000000            0.0000000
 Dipole Y            :          0.0000000            0.0000000            0.0000000
 Dipole Z            :          0.0000000            0.0000000            0.0000000
 Magnitude           :                                                    0.0000000
    Molecular point group: d2h

    Geometry (in Angstrom), charge = 0, multiplicity = 3:

       Center              X                  Y                   Z               Mass
    ------------   -----------------  -----------------  -----------------  -----------------
         C            0.000000000000     0.000000000000    -0.916579500000    12.000000000000
         C            0.000000000000     0.000000000000     0.916579500000    12.000000000000

  Charge       = 0
  Multiplicity = 3
  Basis Set: CC-PVTZ
    Blend: CC-PVTZ
  Basis Set: (CC-PVTZ AUX)
    Blend: CC-PVTZ-JKFIT

    Orbital Energies [Eh]
    ---------------------

    Alpha Occupied:

       1Ag   -10.348979     1B1u  -10.348848     2Ag    -0.692288
       2B1u   -0.524490     3Ag    -0.340892     1B3u   -0.302719
       1B2u   -0.274853

    Alpha Virtual:

       1B2g   -0.149257     1B3g   -0.121945     3B1u    0.019295
       4B1u    0.249462     2B3u    0.276617     4Ag     0.290495
       2B2u    0.291330     2B2g    0.334548     5Ag     0.335741
       2B3g    0.346897     3B3u    0.571402     1B1g    0.578698
       6Ag     0.579059     3B2u    0.591655     5B1u    0.607293
       1Au     0.749068     6B1u    0.749567     7Ag     0.961267
       3B2g    1.000156     3B3g    1.017715     7B1u    1.099972
       4B3u    1.836711     4B2u    1.858066     8Ag     1.883959
       4B2g    1.961406     4B3g    1.985312     8B1u    2.384028
       5B3u    2.384842     5B2u    2.407428     9Ag     2.409163
       2B1g    2.444106    10Ag     2.447154     6B3u    2.603686
       6B2u    2.603793     5B2g    2.670681     5B3g    2.670760
       9B1u    2.820196     2Au     2.820325     3B1g    2.869178
      11Ag     2.869214     6B2g    2.949120     6B3g    2.972205
       7B3u    2.976737    10B1u    2.989293     3Au     2.991254
       7B2u    2.999950    11B1u    3.030935    12Ag     3.361483
      12B1u    3.416080     7B2g    3.498196     7B3g    3.519450
      13Ag     3.933644    13B1u    5.187803

    Beta Occupied:

       1Ag   -10.334189     1B1u  -10.334150     2Ag    -0.630689
       2B1u   -0.448993     1B2u   -0.259399

    Beta Virtual:

       3Ag    -0.194996     1B3u   -0.175285     1B3g   -0.104273
       1B2g   -0.069919     3B1u    0.075275     4B1u    0.289793
       2B2u    0.297232     2B3u    0.308586     4Ag     0.320841
       2B3g    0.351928     2B2g    0.360746     5Ag     0.361143
       1B1g    0.602497     6Ag     0.604556     3B2u    0.618736
       3B3u    0.627731     5B1u    0.628375     1Au     0.771105
       6B1u    0.773049     7Ag     1.006768     3B3g    1.040890
       3B2g    1.045363     7B1u    1.140466     4B2u    1.872944
       4B3u    1.886618     8Ag     1.937897     4B3g    1.995334
       4B2g    2.007828     8B1u    2.430631     5B2u    2.436657
       5B3u    2.445093     9Ag     2.462048     2B1g    2.486517
      10Ag     2.489005     6B2u    2.632757     6B3u    2.633460
       5B3g    2.699563     5B2g    2.700258     2Au     2.851883
       9B1u    2.855051     3B1g    2.904819    11Ag     2.909091
       6B3g    3.006022     6B2g    3.021583     3Au     3.034871
      10B1u    3.037719     7B2u    3.041528     7B3u    3.056409
      11B1u    3.094641    12Ag     3.424774    12B1u    3.463069
       7B3g    3.557719     7B2g    3.564822    13Ag     3.967840
      13B1u    5.222361

    Final Occupation by Irrep:
             Ag   B1g   B2g   B3g    Au   B1u   B2u   B3u
    DOCC [     2,    0,    0,    0,    0,    2,    1,    0 ]
    SOCC [     1,    0,    0,    0,    0,    0,    0,    1 ]
    NA   [     3,    0,    0,    0,    0,    2,    1,    1 ]
    NB   [     2,    0,    0,    0,    0,    2,    1,    0 ]

  @DF-UKS Final Energy:   -75.81960277627724

   => Energetics <=

    Nuclear Repulsion Energy =             10.3921043314409722
    One-Electron Energy =                -121.5341660106303152
    Two-Electron Energy =                  43.7005151915886998
    DFT Exchange-Correlation Energy =      -8.3780562886765964
    Empirical Dispersion Energy =           0.0000000000000000
    VV10 Nonlocal Energy =                  0.0000000000000000
    Total Energy =                        -75.8196027762772360

  UHF NO Occupations:
  HONO-2 :    2B1u 1.9973867
  HONO-1 :    3 Ag 1.0000000
  HONO-0 :    1B3u 1.0000000
  LUNO+0 :    3B1u 0.0026133
  LUNO+1 :    4 Ag 0.0004602
  LUNO+2 :    2B2u 0.0001762
  LUNO+3 :    4B1u 0.0000006

Computation Completed

Properties will be evaluated at   0.000000,   0.000000,   0.000000 [a0]

Properties computed using the B3LYP density matrix

 Multipole Moments:

 ------------------------------------------------------------------------------------
     Multipole            Electronic (a.u.)      Nuclear  (a.u.)        Total (a.u.)
 ------------------------------------------------------------------------------------

 L = 1.  Multiply by 2.5417464519 to convert [e a0] to [Debye]
 Dipole X            :          0.0000000            0.0000000            0.0000000
 Dipole Y            :          0.0000000            0.0000000            0.0000000
 Dipole Z            :          0.0000000            0.0000000            0.0000000
 Magnitude           :                                                    0.0000000

 L = 2.  Multiply by 1.3450342976 to convert [e a0^2] to [Debye ang]
 Quadrupole XX       :         -8.6792605            0.0000000           -8.6792605
 Quadrupole XY       :          0.0000000            0.0000000            0.0000000
 Quadrupole XZ       :          0.0000000            0.0000000            0.0000000
 Quadrupole YY       :        -10.3758608            0.0000000          -10.3758608
 Quadrupole YZ       :          0.0000000            0.0000000            0.0000000
 Quadrupole ZZ       :        -44.4207773           36.0013892           -8.4193880
 Traceless XX        :         12.4793724          -12.0004631            0.4789093
 Traceless YY        :         10.7827721          -12.0004631           -1.2176910
 Traceless ZZ        :        -23.2621444           24.0009262            0.7387818

 ------------------------------------------------------------------------------------
  ==> Computing MBIS Charges <==

  Electron Count from Grid (Expected Number): 12.00000 (12.00000)
  Difference: -0.00000

  MBIS Charges: (a.u.)
   Center  Symbol  Z      Pop.       Charge
      1       C    6    6.000000    0.000000
      2       C    6    6.000000    0.000000

  MBIS Dipoles: [e a0]
   Center  Symbol  Z        X           Y           Z
      1       C    6    0.000000    0.000000   -0.170695
      2       C    6   -0.000000    0.000000    0.170695

  MBIS Quadrupoles: [e a0^2]
   Center  Symbol  Z      XX        XY        XZ        YY        YZ        ZZ
      1       C    6   -4.3396    0.0000    0.0000   -5.1879   -0.0000   -4.8010
      2       C    6   -4.3396    0.0000    0.0000   -5.1879    0.0000   -4.8010

  MBIS Octupoles: [e a0^3]
   Center  Symbol  Z      XXX       XXY       XXZ       XYY       XYZ       XZZ       YYY       YYZ       YZZ       ZZZ
      1       C    6   -0.0000   -0.0000   -0.3254    0.0000   -0.0000   -0.0000    0.0000   -0.5902    0.0000   -1.1862
      2       C    6   -0.0000   -0.0000    0.3254   -0.0000    0.0000   -0.0000    0.0000    0.5902    0.0000    1.1862

  MBIS Radial Moments:
   Center  Symbol  Z      [a0^2]      [a0^3]      [a0^4]
      1       C    6   14.328572   36.090421   108.188581
      2       C    6   14.328572   36.090421   108.188581

  MBIS Valence Widths: [a0]
   Center  Symbol  Z     Width
      1       C    6    0.531103
      2       C    6    0.531103

*** tstop() called on Mac.lan at Sun Aug 10 17:04:55 2025
Module time:
	user time   =       4.03 seconds =       0.07 minutes
	system time =       1.64 seconds =       0.03 minutes
	total time  =          0 seconds =       0.00 minutes
Total time:
	user time   =      14.84 seconds =       0.25 minutes
	system time =       3.94 seconds =       0.07 minutes
	total time  =          1 seconds =       0.02 minutes

    Psi4 stopped on: Sunday, 10 August 2025 05:04PM
    Psi4 wall time for execution: 0:00:01.83

*** Psi4 exiting successfully. Buy a developer a beer!
