                               Psi4 1.9.1 release

  ==> Input File <==

--------------------------------------------------------------------------
molecule {
0 3
C           0.000000           0.000000           0.000000
C           0.000000           0.000000           1.546230
}

set {
basis              cc-pvtz
reference          uks
maxiter            500
DAMPING_PERCENTAGE 1
E_CONVERGENCE      1.0E-8
D_CONVERGENCE      1.0E-8
DIIS_MAX_VECS      400
MBIS_MAXITER       8000
guess              read
}

E, wfn = energy('b3lyp', restart_file='last_wfn', return_wfn=True)
properties('b3lyp','MBIS_CHARGES', wfn=wfn)
wfn.to_file('last_wfn')
--------------------------------------------------------------------------

    Molecular point group: d2h
  Charge       = 0
  Multiplicity = 3
  Basis Set: CC-PVTZ
    Blend: CC-PVTZ
  Basis Set: (CC-PVTZ AUX)
    Blend: CC-PVTZ-JKFIT
  @DF-UKS Final Energy:   -75.90082921180164
    Total Energy =                        -75.9008292118016357
 Dipole X            :          0.0000000            0.0000000            0.0000000
 Dipole Y            :          0.0000000            0.0000000            0.0000000
 Dipole Z            :          0.0000000            0.0000000            0.0000000
 Magnitude           :                                                    0.0000000
    Molecular point group: d2h

    Geometry (in Angstrom), charge = 0, multiplicity = 3:

       Center              X                  Y                   Z               Mass
    ------------   -----------------  -----------------  -----------------  -----------------
         C            0.000000000000     0.000000000000    -0.773115000000    12.000000000000
         C            0.000000000000     0.000000000000     0.773115000000    12.000000000000

  Charge       = 0
  Multiplicity = 3
  Basis Set: CC-PVTZ
    Blend: CC-PVTZ
  Basis Set: (CC-PVTZ AUX)
    Blend: CC-PVTZ-JKFIT

    Orbital Energies [Eh]
    ---------------------

    Alpha Occupied:

       1Ag   -10.327346     1B1u  -10.327026     2Ag    -0.757172
       2B1u   -0.490837     3Ag    -0.353897     1B3u   -0.334009
       1B2u   -0.303058

    Alpha Virtual:

       1B2g   -0.106852     1B3g   -0.079321     3B1u    0.137991
       2B3u    0.269416     4Ag     0.280369     2B2u    0.284297
       4B1u    0.299943     5Ag     0.323983     2B2g    0.342955
       2B3g    0.355746     1B1g    0.557090     6Ag     0.557656
       5B1u    0.610596     3B3u    0.631741     3B2u    0.654740
       1Au     0.793277     6B1u    0.793585     3B2g    1.073161
       3B3g    1.089855     7Ag     1.095218     7B1u    1.105767
       4B3u    1.864329     4B2u    1.887596     8Ag     1.958136
       4B2g    2.021161     4B3g    2.047127     5B3u    2.366566
       2B1g    2.372037     9Ag     2.372136     5B2u    2.392476
       8B1u    2.487844    10Ag     2.503889     6B3u    2.549953
       6B2u    2.550076     5B2g    2.730372     5B3g    2.730465
       3B1g    2.874066    11Ag     2.874269     9B1u    2.914545
       2Au     2.933489    10B1u    2.934376     6B2g    3.029449
       6B3g    3.051435     3Au     3.148664    11B1u    3.149515
       7B3u    3.151143     7B2u    3.175340    12B1u    3.500886
      12Ag     3.763842    13Ag     3.850509     7B2g    3.911236
       7B3g    3.935720    13B1u    7.380354

    Beta Occupied:

       1Ag   -10.311880     1B1u  -10.311727     2Ag    -0.693424
       2B1u   -0.406682     1B2u   -0.286372

    Beta Virtual:

       3Ag    -0.204489     1B3u   -0.196976     1B3g   -0.059289
       1B2g   -0.029175     3B1u    0.161573     2B2u    0.290060
       2B3u    0.300472     4Ag     0.306571     5Ag     0.354693
       2B3g    0.361731     4B1u    0.363631     2B2g    0.370617
       1B1g    0.582860     6Ag     0.585176     5B1u    0.629475
       3B2u    0.682311     3B3u    0.689588     1Au     0.816563
       6B1u    0.818555     3B3g    1.112521     3B2g    1.115774
       7Ag     1.137525     7B1u    1.145150     4B2u    1.901456
       4B3u    1.914855     8Ag     2.008359     4B3g    2.058174
       4B2g    2.069307     2B1g    2.413952     9Ag     2.416253
       5B2u    2.421197     5B3u    2.431923     8B1u    2.532689
      10Ag     2.566260     6B2u    2.581538     6B3u    2.582337
       5B3g    2.761446     5B2g    2.762253     3B1g    2.914346
      11Ag     2.918877     2Au     2.968785     9B1u    2.970485
      10B1u    2.979524     6B3g    3.095184     6B2g    3.108635
       3Au     3.192955    11B1u    3.195502     7B2u    3.219944
       7B3u    3.230607    12B1u    3.558673    12Ag     3.820850
      13Ag     3.885404     7B3g    3.967721     7B2g    3.975120
      13B1u    7.411440

    Final Occupation by Irrep:
             Ag   B1g   B2g   B3g    Au   B1u   B2u   B3u
    DOCC [     2,    0,    0,    0,    0,    2,    1,    0 ]
    SOCC [     1,    0,    0,    0,    0,    0,    0,    1 ]
    NA   [     3,    0,    0,    0,    0,    2,    1,    1 ]
    NB   [     2,    0,    0,    0,    0,    2,    1,    0 ]

  @DF-UKS Final Energy:   -75.90082921178791

   => Energetics <=

    Nuclear Repulsion Energy =             12.3205341922741098
    One-Electron Energy =                -125.4415269194699079
    Two-Electron Energy =                  45.6712676609667483
    DFT Exchange-Correlation Energy =      -8.4511041455588618
    Empirical Dispersion Energy =           0.0000000000000000
    VV10 Nonlocal Energy =                  0.0000000000000000
    Total Energy =                        -75.9008292117879080

  UHF NO Occupations:
  HONO-2 :    2B1u 1.9980339
  HONO-1 :    1B3u 1.0000000
  HONO-0 :    3 Ag 1.0000000
  LUNO+0 :    3B1u 0.0019661
  LUNO+1 :    4 Ag 0.0004089
  LUNO+2 :    2B2u 0.0001738
  LUNO+3 :    4B1u 0.0000006

Computation Completed

Properties will be evaluated at   0.000000,   0.000000,   0.000000 [a0]

Properties computed using the B3LYP density matrix

 Multipole Moments:

 ------------------------------------------------------------------------------------
     Multipole            Electronic (a.u.)      Nuclear  (a.u.)        Total (a.u.)
 ------------------------------------------------------------------------------------

 L = 1.  Multiply by 2.5417464519 to convert [e a0] to [Debye]
 Dipole X            :          0.0000000            0.0000000            0.0000000
 Dipole Y            :          0.0000000            0.0000000            0.0000000
 Dipole Z            :          0.0000000            0.0000000            0.0000000
 Magnitude           :                                                    0.0000000

 L = 2.  Multiply by 1.3450342976 to convert [e a0^2] to [Debye ang]
 Quadrupole XX       :         -8.3091398            0.0000000           -8.3091398
 Quadrupole XY       :          0.0000000            0.0000000            0.0000000
 Quadrupole XZ       :          0.0000000            0.0000000            0.0000000
 Quadrupole YY       :         -9.8979162            0.0000000           -9.8979162
 Quadrupole YZ       :          0.0000000            0.0000000            0.0000000
 Quadrupole ZZ       :        -34.4600550           25.6133969           -8.8466581
 Traceless XX        :          9.2465639           -8.5377990            0.7087649
 Traceless YY        :          7.6577874           -8.5377990           -0.8800115
 Traceless ZZ        :        -16.9043513           17.0755979            0.1712466

 ------------------------------------------------------------------------------------
  ==> Computing MBIS Charges <==

  Electron Count from Grid (Expected Number): 12.00000 (12.00000)
  Difference:  0.00000

  MBIS Charges: (a.u.)
   Center  Symbol  Z      Pop.       Charge
      1       C    6    6.000000   -0.000000
      2       C    6    6.000000   -0.000000

  MBIS Dipoles: [e a0]
   Center  Symbol  Z        X           Y           Z
      1       C    6   -0.000000    0.000000   -0.119039
      2       C    6   -0.000000    0.000000    0.119039

  MBIS Quadrupoles: [e a0^2]
   Center  Symbol  Z      XX        XY        XZ        YY        YZ        ZZ
      1       C    6   -4.1546    0.0000   -0.0000   -4.9490   -0.0000   -4.7712
      2       C    6   -4.1546    0.0000    0.0000   -4.9490    0.0000   -4.7712

  MBIS Octupoles: [e a0^3]
   Center  Symbol  Z      XXX       XXY       XXZ       XYY       XYZ       XZZ       YYY       YYZ       YZZ       ZZZ
      1       C    6   -0.0000   -0.0000   -0.1462   -0.0000    0.0000   -0.0000    0.0000   -0.4008    0.0000   -0.6927
      2       C    6   -0.0000   -0.0000    0.1462   -0.0000   -0.0000   -0.0000    0.0000    0.4008    0.0000    0.6927

  MBIS Radial Moments:
   Center  Symbol  Z      [a0^2]      [a0^3]      [a0^4]
      1       C    6   13.874684   34.285100   100.904243
      2       C    6   13.874684   34.285100   100.904243

  MBIS Valence Widths: [a0]
   Center  Symbol  Z     Width
      1       C    6    0.522215
      2       C    6    0.522215

*** tstop() called on Mac.lan at Sun Aug 10 17:04:25 2025
Module time:
	user time   =       3.99 seconds =       0.07 minutes
	system time =       1.98 seconds =       0.03 minutes
	total time  =          0 seconds =       0.00 minutes
Total time:
	user time   =      16.00 seconds =       0.27 minutes
	system time =       4.50 seconds =       0.07 minutes
	total time  =          2 seconds =       0.03 minutes

    Psi4 stopped on: Sunday, 10 August 2025 05:04PM
    Psi4 wall time for execution: 0:00:01.99

*** Psi4 exiting successfully. Buy a developer a beer!
