                               Psi4 1.9.1 release

  ==> Input File <==

--------------------------------------------------------------------------
molecule {
0 1
H           0.000000           0.000000           0.000000
H           0.000000           0.000000           0.773186
}

set {
basis              cc-pvtz
reference          uks
maxiter            500
DAMPING_PERCENTAGE 1
E_CONVERGENCE      1.0E-8
D_CONVERGENCE      1.0E-8
DIIS_MAX_VECS      400
MBIS_MAXITER       8000
guess              SAP
}

E, wfn = energy('b3lyp', return_wfn=True)
properties('b3lyp','MBIS_CHARGES', wfn=wfn)
wfn.to_file('last_wfn')
--------------------------------------------------------------------------

    Molecular point group: d2h
  Charge       = 0
  Multiplicity = 1
  Basis Set: CC-PVTZ
    Blend: CC-PVTZ
  Basis Set: (CC-PVTZ AUX)
    Blend: CC-PVTZ-JKFIT
  @DF-UKS Final Energy:    -1.17942780461490
    Total Energy =                         -1.1794278046148963
 Dipole X            :          0.0000000            0.0000000            0.0000000
 Dipole Y            :          0.0000000            0.0000000            0.0000000
 Dipole Z            :          0.0000000            0.0000000            0.0000000
 Magnitude           :                                                    0.0000000
    Molecular point group: d2h

    Geometry (in Angstrom), charge = 0, multiplicity = 1:

       Center              X                  Y                   Z               Mass
    ------------   -----------------  -----------------  -----------------  -----------------
         H            0.000000000000     0.000000000000    -0.386593000000     1.007825032230
         H            0.000000000000     0.000000000000     0.386593000000     1.007825032230

  Charge       = 0
  Multiplicity = 1
  Basis Set: CC-PVTZ
    Blend: CC-PVTZ
  Basis Set: (CC-PVTZ AUX)
    Blend: CC-PVTZ-JKFIT

    Orbital Energies [Eh]
    ---------------------

    Alpha Occupied:

       1Ag    -0.427953

    Alpha Virtual:

       1B1u    0.052115     2Ag     0.197843     2B1u    0.458911
       1B2u    0.509042     1B3u    0.509042     3Ag     0.901684
       1B3g    0.931177     1B2g    0.931177     3B1u    1.357363
       4B1u    2.042079     4Ag     2.108665     5Ag     2.881988
       1B1g    2.881988     2B3u    3.064790     2B2u    3.064790
       6Ag     3.340756     2B2g    3.622494     2B3g    3.622494
       1Au     3.762055     5B1u    3.762055     3B3u    3.779611
       3B2u    3.779611     6B1u    4.250439     3B2g    5.276002
       3B3g    5.276002     7Ag     5.329660     7B1u    6.389263

    Beta Occupied:

       1Ag    -0.427953

    Beta Virtual:

       1B1u    0.052115     2Ag     0.197843     2B1u    0.458911
       1B2u    0.509042     1B3u    0.509042     3Ag     0.901684
       1B3g    0.931177     1B2g    0.931177     3B1u    1.357363
       4B1u    2.042079     4Ag     2.108665     5Ag     2.881988
       1B1g    2.881988     2B3u    3.064790     2B2u    3.064790
       6Ag     3.340756     2B2g    3.622494     2B3g    3.622494
       1Au     3.762055     5B1u    3.762055     3B3u    3.779611
       3B2u    3.779611     6B1u    4.250439     3B2g    5.276002
       3B3g    5.276002     7Ag     5.329660     7B1u    6.389263

    Final Occupation by Irrep:
             Ag   B1g   B2g   B3g    Au   B1u   B2u   B3u
    DOCC [     1,    0,    0,    0,    0,    0,    0,    0 ]
    SOCC [     0,    0,    0,    0,    0,    0,    0,    0 ]
    NA   [     1,    0,    0,    0,    0,    0,    0,    0 ]
    NB   [     1,    0,    0,    0,    0,    0,    0,    0 ]

  @DF-UKS Final Energy:    -1.17942780461490

   => Energetics <=

    Nuclear Repulsion Energy =              0.6844112680131303
    One-Electron Energy =                  -2.4623744914930814
    Two-Electron Energy =                   1.1641413500646620
    DFT Exchange-Correlation Energy =      -0.5656059311996071
    Empirical Dispersion Energy =           0.0000000000000000
    VV10 Nonlocal Energy =                  0.0000000000000000
    Total Energy =                         -1.1794278046148963

  UHF NO Occupations:
  HONO-0 :    1 Ag 2.0000000
  LUNO+0 :    2 Ag 0.0000000
  LUNO+1 :    3 Ag 0.0000000
  LUNO+2 :    4 Ag 0.0000000
  LUNO+3 :    5 Ag 0.0000000

Computation Completed

Properties will be evaluated at   0.000000,   0.000000,   0.000000 [a0]

Properties computed using the B3LYP density matrix

 Multipole Moments:

 ------------------------------------------------------------------------------------
     Multipole            Electronic (a.u.)      Nuclear  (a.u.)        Total (a.u.)
 ------------------------------------------------------------------------------------

 L = 1.  Multiply by 2.5417464519 to convert [e a0] to [Debye]
 Dipole X            :          0.0000000            0.0000000            0.0000000
 Dipole Y            :          0.0000000            0.0000000            0.0000000
 Dipole Z            :          0.0000000            0.0000000            0.0000000
 Magnitude           :                                                    0.0000000

 L = 2.  Multiply by 1.3450342976 to convert [e a0^2] to [Debye ang]
 Quadrupole XX       :         -1.5980703            0.0000000           -1.5980703
 Quadrupole XY       :          0.0000000            0.0000000            0.0000000
 Quadrupole XZ       :          0.0000000            0.0000000            0.0000000
 Quadrupole YY       :         -1.5980703            0.0000000           -1.5980703
 Quadrupole YZ       :          0.0000000            0.0000000            0.0000000
 Quadrupole ZZ       :         -2.2138736            1.0674209           -1.1464527
 Traceless XX        :          0.2052678           -0.3558070           -0.1505392
 Traceless YY        :          0.2052678           -0.3558070           -0.1505392
 Traceless ZZ        :         -0.4105355            0.7116139            0.3010784

 ------------------------------------------------------------------------------------
  ==> Computing MBIS Charges <==

  Electron Count from Grid (Expected Number):  2.00000 ( 2.00000)
  Difference: -0.00000

  MBIS Charges: (a.u.)
   Center  Symbol  Z      Pop.       Charge
      1       H    1    1.000000    0.000000
      2       H    1    1.000000    0.000000

  MBIS Dipoles: [e a0]
   Center  Symbol  Z        X           Y           Z
      1       H    1    0.000000   -0.000000   -0.091873
      2       H    1    0.000000    0.000000    0.091873

  MBIS Quadrupoles: [e a0^2]
   Center  Symbol  Z      XX        XY        XZ        YY        YZ        ZZ
      1       H    1   -0.7990    0.0000    0.0000   -0.7990   -0.0000   -0.7075
      2       H    1   -0.7990    0.0000    0.0000   -0.7990    0.0000   -0.7075

  MBIS Octupoles: [e a0^3]
   Center  Symbol  Z      XXX       XXY       XXZ       XYY       XYZ       XZZ       YYY       YYZ       YZZ       ZZZ
      1       H    1   -0.0000   -0.0000   -0.0528   -0.0000   -0.0000    0.0000    0.0000   -0.0528    0.0000   -0.0755
      2       H    1   -0.0000   -0.0000    0.0528    0.0000    0.0000    0.0000    0.0000    0.0528    0.0000    0.0755

  MBIS Radial Moments:
   Center  Symbol  Z      [a0^2]      [a0^3]      [a0^4]
      1       H    1    2.305533    5.143958   13.939989
      2       H    1    2.305533    5.143958   13.939989

  MBIS Valence Widths: [a0]
   Center  Symbol  Z     Width
      1       H    1    0.436471
      2       H    1    0.436471

*** tstop() called on Mac.lan at Sun Aug 10 16:59:36 2025
Module time:
	user time   =       0.81 seconds =       0.01 minutes
	system time =       2.25 seconds =       0.04 minutes
	total time  =          1 seconds =       0.02 minutes
Total time:
	user time   =       1.72 seconds =       0.03 minutes
	system time =       4.52 seconds =       0.08 minutes
	total time  =          1 seconds =       0.02 minutes

    Psi4 stopped on: Sunday, 10 August 2025 04:59PM
    Psi4 wall time for execution: 0:00:01.02

*** Psi4 exiting successfully. Buy a developer a beer!
