                               Psi4 1.9.1 release

  ==> Input File <==

--------------------------------------------------------------------------
molecule {
0 1
O           0.000000           0.000000           0.000000
C           0.000000           0.000000           1.337567
}

set {
basis              cc-pvtz
reference          uks
maxiter            500
DAMPING_PERCENTAGE 1
E_CONVERGENCE      1.0E-8
D_CONVERGENCE      1.0E-8
DIIS_MAX_VECS      400
MBIS_MAXITER       8000
guess              read
}

E, wfn = energy('b3lyp', restart_file='last_wfn', return_wfn=True)
properties('b3lyp','MBIS_CHARGES', wfn=wfn)
wfn.to_file('last_wfn')
--------------------------------------------------------------------------

    Molecular point group: c2v
  Charge       = 0
  Multiplicity = 1
  Basis Set: CC-PVTZ
    Blend: CC-PVTZ
  Basis Set: (CC-PVTZ AUX)
    Blend: CC-PVTZ-JKFIT
  @DF-UKS Final Energy:  -113.29348926400979
    Total Energy =                       -113.2934892640097928
 Dipole X            :          0.0000000            0.0000000            0.0000000
 Dipole Y            :          0.0000000            0.0000000            0.0000000
 Dipole Z            :          0.2478221           -0.0027549            0.2450672
 Magnitude           :                                                    0.2450672
    Molecular point group: c2v

    Geometry (in Angstrom), charge = 0, multiplicity = 1:

       Center              X                  Y                   Z               Mass
    ------------   -----------------  -----------------  -----------------  -----------------
         O            0.000000000000     0.000000000000    -0.573347131724    15.994914619570
         C            0.000000000000     0.000000000000     0.764219868276    12.000000000000

  Charge       = 0
  Multiplicity = 1
  Basis Set: CC-PVTZ
    Blend: CC-PVTZ
  Basis Set: (CC-PVTZ AUX)
    Blend: CC-PVTZ-JKFIT

    Orbital Energies [Eh]
    ---------------------

    Alpha Occupied:

       1A1   -19.241437     2A1   -10.359575     3A1    -1.063940
       4A1    -0.583453     1B1    -0.420221     1B2    -0.420221
       5A1    -0.395838

    Alpha Virtual:

       2B2    -0.101514     2B1    -0.101514     6A1     0.138326
       3B2     0.287720     3B1     0.287720     7A1     0.303311
       8A1     0.365501     9A1     0.539293     4B2     0.616913
       4B1     0.616913     1A2     0.632809    10A1     0.632809
       5B2     0.783810     5B1     0.783810    11A1     1.068702
      12A1     1.184468    13A1     1.468097     2A2     1.468097
       6B1     1.735962     6B2     1.735962     7B2     1.991252
       7B1     1.991252    14A1     2.017242    15A1     2.169474
       8B1     2.622173     8B2     2.622173     3A2     2.705914
      16A1     2.705914     9B2     2.882736     9B1     2.882736
       4A2     2.897999    17A1     2.898001    18A1     3.060654
      10B2     3.129668    10B1     3.129668    19A1     3.176061
      11B2     3.833418    11B1     3.833418    20A1     3.870006
      12B2     5.071898    12B1     5.071898    21A1     5.252835
       5A2     5.252837    22A1     5.442255    13B1     5.724117
      13B2     5.724117    23A1     6.187066     6A2     6.187070
      24A1     6.263338    14B1     6.643688    14B2     6.643688
      25A1     7.117539    26A1     9.491845

    Beta Occupied:

       1A1   -19.241437     2A1   -10.359575     3A1    -1.063940
       4A1    -0.583453     1B1    -0.420221     1B2    -0.420221
       5A1    -0.395838

    Beta Virtual:

       2B2    -0.101514     2B1    -0.101514     6A1     0.138326
       3B2     0.287720     3B1     0.287720     7A1     0.303311
       8A1     0.365501     9A1     0.539293     4B2     0.616913
       4B1     0.616913     1A2     0.632809    10A1     0.632809
       5B2     0.783810     5B1     0.783810    11A1     1.068702
      12A1     1.184468    13A1     1.468097     2A2     1.468097
       6B1     1.735962     6B2     1.735962     7B2     1.991252
       7B1     1.991252    14A1     2.017242    15A1     2.169474
       8B2     2.622173     8B1     2.622173     3A2     2.705914
      16A1     2.705914     9B2     2.882736     9B1     2.882736
       4A2     2.897999    17A1     2.898001    18A1     3.060654
      10B2     3.129668    10B1     3.129668    19A1     3.176061
      11B2     3.833418    11B1     3.833418    20A1     3.870006
      12B1     5.071898    12B2     5.071898    21A1     5.252835
       5A2     5.252837    22A1     5.442255    13B1     5.724117
      13B2     5.724117    23A1     6.187066     6A2     6.187070
      24A1     6.263338    14B1     6.643688    14B2     6.643688
      25A1     7.117539    26A1     9.491845

    Final Occupation by Irrep:
             A1    A2    B1    B2
    DOCC [     5,    0,    1,    1 ]
    SOCC [     0,    0,    0,    0 ]
    NA   [     5,    0,    1,    1 ]
    NB   [     5,    0,    1,    1 ]

  @DF-UKS Final Energy:  -113.29348925756562

   => Energetics <=

    Nuclear Repulsion Energy =             18.9900813283820540
    One-Electron Energy =                -191.6129038031570531
    Two-Electron Energy =                  70.4239381518886631
    DFT Exchange-Correlation Energy =     -11.0946049346792854
    Empirical Dispersion Energy =           0.0000000000000000
    VV10 Nonlocal Energy =                  0.0000000000000000
    Total Energy =                       -113.2934892575656249

  UHF NO Occupations:
  HONO-2 :    4 A1 2.0000000
  HONO-1 :    1 B2 2.0000000
  HONO-0 :    5 A1 2.0000000
  LUNO+0 :    6 A1 0.0000000
  LUNO+1 :    7 A1 0.0000000
  LUNO+2 :    8 A1 0.0000000
  LUNO+3 :    9 A1 0.0000000

Computation Completed

Properties will be evaluated at   0.000000,   0.000000,   0.000000 [a0]

Properties computed using the B3LYP density matrix

 Multipole Moments:

 ------------------------------------------------------------------------------------
     Multipole            Electronic (a.u.)      Nuclear  (a.u.)        Total (a.u.)
 ------------------------------------------------------------------------------------

 L = 1.  Multiply by 2.5417464519 to convert [e a0] to [Debye]
 Dipole X            :          0.0000000            0.0000000            0.0000000
 Dipole Y            :          0.0000000            0.0000000            0.0000000
 Dipole Z            :          0.2478221           -0.0027549            0.2450672
 Magnitude           :                                                    0.2450672

 L = 2.  Multiply by 1.3450342976 to convert [e a0^2] to [Debye ang]
 Quadrupole XX       :         -7.8890689            0.0000000           -7.8890689
 Quadrupole XY       :          0.0000000            0.0000000            0.0000000
 Quadrupole XZ       :          0.0000000            0.0000000            0.0000000
 Quadrupole YY       :         -7.8890689            0.0000000           -7.8890689
 Quadrupole YZ       :          0.0000000            0.0000000            0.0000000
 Quadrupole ZZ       :        -30.8659239           21.9049385           -8.9609854
 Traceless XX        :          7.6589517           -7.3016462            0.3573055
 Traceless YY        :          7.6589517           -7.3016462            0.3573055
 Traceless ZZ        :        -15.3179033           14.6032923           -0.7146110

 ------------------------------------------------------------------------------------
  ==> Computing MBIS Charges <==

  Electron Count from Grid (Expected Number): 14.00000 (14.00000)
  Difference: -0.00000

  MBIS Charges: (a.u.)
   Center  Symbol  Z      Pop.       Charge
      1       O    8    8.232034   -0.232034
      2       C    6    5.767966    0.232034

  MBIS Dipoles: [e a0]
   Center  Symbol  Z        X           Y           Z
      1       O    8   -0.000000   -0.000000   -0.095471
      2       C    6    0.000000    0.000000   -0.245959

  MBIS Quadrupoles: [e a0^2]
   Center  Symbol  Z      XX        XY        XZ        YY        YZ        ZZ
      1       O    8   -3.9262   -0.0000   -0.0000   -3.9262    0.0000   -4.0246
      2       C    6   -3.9629    0.0000    0.0000   -3.9629    0.0000   -4.6444

  MBIS Octupoles: [e a0^3]
   Center  Symbol  Z      XXX       XXY       XXZ       XYY       XYZ       XZZ       YYY       YYZ       YZZ       ZZZ
      1       O    8    0.0000   -0.0000   -0.0609   -0.0000   -0.0000    0.0000   -0.0000   -0.0609   -0.0000   -0.2629
      2       C    6   -0.0000   -0.0000   -0.0985    0.0000    0.0000    0.0000    0.0000   -0.0985    0.0000   -0.4345

  MBIS Radial Moments:
   Center  Symbol  Z      [a0^2]      [a0^3]      [a0^4]
      1       O    8   11.876884   22.393177   50.532807
      2       C    6   12.570257   30.198632   86.004775

  MBIS Valence Widths: [a0]
   Center  Symbol  Z     Width
      1       O    8    0.389302
      2       C    6    0.511106

*** tstop() called on Mac.lan at Sun Aug 10 17:18:09 2025
Module time:
	user time   =      15.24 seconds =       0.25 minutes
	system time =       3.23 seconds =       0.05 minutes
	total time  =          2 seconds =       0.03 minutes
Total time:
	user time   =      58.91 seconds =       0.98 minutes
	system time =       7.41 seconds =       0.12 minutes
	total time  =          7 seconds =       0.12 minutes

    Psi4 stopped on: Sunday, 10 August 2025 05:18PM
    Psi4 wall time for execution: 0:00:06.71

*** Psi4 exiting successfully. Buy a developer a beer!
