                               Psi4 1.9.1 release

  ==> Input File <==

--------------------------------------------------------------------------
molecule {
0 2
C           0.000000           0.000000           0.000000
H           0.000000           0.000000           1.355320
}

set {
basis              cc-pvtz
reference          uks
maxiter            500
DAMPING_PERCENTAGE 1
E_CONVERGENCE      1.0E-8
D_CONVERGENCE      1.0E-8
DIIS_MAX_VECS      400
MBIS_MAXITER       8000
guess              read
}

E, wfn = energy('b3lyp', restart_file='last_wfn', return_wfn=True)
properties('b3lyp','MBIS_CHARGES', wfn=wfn)
wfn.to_file('last_wfn')
--------------------------------------------------------------------------

    Molecular point group: c2v
  Charge       = 0
  Multiplicity = 2
  Basis Set: CC-PVTZ
    Blend: CC-PVTZ
  Basis Set: (CC-PVTZ AUX)
    Blend: CC-PVTZ-JKFIT
  @DF-UKS Final Energy:   -38.47861473179881
    Total Energy =                        -38.4786147317988139
 Dipole X            :          0.0000000            0.0000000            0.0000000
 Dipole Y            :          0.0000000            0.0000000            0.0000000
 Dipole Z            :         -0.7806528            1.1721294            0.3914766
 Magnitude           :                                                    0.3914766
    Molecular point group: c2v

    Geometry (in Angstrom), charge = 0, multiplicity = 2:

       Center              X                  Y                   Z               Mass
    ------------   -----------------  -----------------  -----------------  -----------------
         C            0.000000000000     0.000000000000    -0.105007979374    12.000000000000
         H            0.000000000000     0.000000000000     1.250312020626     1.007825032230

  Charge       = 0
  Multiplicity = 2
  Basis Set: CC-PVTZ
    Blend: CC-PVTZ
  Basis Set: (CC-PVTZ AUX)
    Blend: CC-PVTZ-JKFIT

    Orbital Energies [Eh]
    ---------------------

    Alpha Occupied:

       1A1   -10.306526     2A1    -0.612619     3A1    -0.320469
       1B1    -0.264365

    Alpha Virtual:

       1B2    -0.151178     4A1     0.020877     5A1     0.267749
       2B1     0.287878     2B2     0.307493     6A1     0.320742
       7A1     0.448900     3B1     0.546936     3B2     0.549342
       1A2     0.653674     8A1     0.659405     9A1     0.899000
       4B1     0.966663     4B2     0.967574    10A1     1.213479
       5B1     1.904163     5B2     1.930743    11A1     2.119209
      12A1     2.393792     6B1     2.555806     2A2     2.556027
       6B2     2.560123    13A1     2.560161     7B1     2.636813
       7B2     2.639358    14A1     2.712011     3A2     2.887117
      15A1     2.900023     8B1     3.009832     8B2     3.023926
      16A1     3.088961     4A2     3.367166    17A1     3.368309
       9B2     3.699564     9B1     3.701704    18A1     3.805280
      10B2     4.184734    10B1     4.185139    19A1     4.328779
      20A1     6.277423

    Beta Occupied:

       1A1   -10.291318     2A1    -0.565117     3A1    -0.304959

    Beta Virtual:

       1B2    -0.134942     1B1    -0.088213     4A1     0.029110
       5A1     0.271044     2B2     0.314914     6A1     0.328639
       2B1     0.343839     7A1     0.469122     3B2     0.549826
       3B1     0.569221     8A1     0.696827     1A2     0.697207
       9A1     0.912153     4B2     0.968827     4B1     0.988548
      10A1     1.218383     5B2     1.941654     5B1     1.985310
      11A1     2.131712    12A1     2.397213     6B2     2.563473
      13A1     2.587728     2A2     2.588104     6B1     2.594440
       7B2     2.695602     7B1     2.696259    14A1     2.731379
       3A2     2.965541    15A1     2.965704     8B2     3.029662
       8B1     3.072271    16A1     3.110916     4A2     3.372566
      17A1     3.372892     9B2     3.693774     9B1     3.700626
      18A1     3.817709    10B2     4.183542    10B1     4.201174
      19A1     4.329612    20A1     6.292624

    Final Occupation by Irrep:
             A1    A2    B1    B2
    DOCC [     3,    0,    0,    0 ]
    SOCC [     0,    0,    1,    0 ]
    NA   [     3,    0,    1,    0 ]
    NB   [     3,    0,    0,    0 ]

  @DF-UKS Final Energy:   -38.47861473164145

   => Energetics <=

    Nuclear Repulsion Energy =              2.3426668713071450
    One-Electron Energy =                 -55.7312254054871943
    Two-Electron Energy =                  19.4036500982614193
    DFT Exchange-Correlation Energy =      -4.4937062957228253
    Empirical Dispersion Energy =           0.0000000000000000
    VV10 Nonlocal Energy =                  0.0000000000000000
    Total Energy =                        -38.4786147316414500

  UHF NO Occupations:
  HONO-2 :    2 A1 1.9996308
  HONO-1 :    3 A1 1.9986041
  HONO-0 :    1 B1 1.0000000
  LUNO+0 :    4 A1 0.0013959
  LUNO+1 :    5 A1 0.0003692
  LUNO+2 :    6 A1 0.0000007
  LUNO+3 :    7 A1 0.0000000

Computation Completed

Properties will be evaluated at   0.000000,   0.000000,   0.000000 [a0]

Properties computed using the B3LYP density matrix

 Multipole Moments:

 ------------------------------------------------------------------------------------
     Multipole            Electronic (a.u.)      Nuclear  (a.u.)        Total (a.u.)
 ------------------------------------------------------------------------------------

 L = 1.  Multiply by 2.5417464519 to convert [e a0] to [Debye]
 Dipole X            :          0.0000000            0.0000000            0.0000000
 Dipole Y            :          0.0000000            0.0000000            0.0000000
 Dipole Z            :         -0.7806528            1.1721294            0.3914766
 Magnitude           :                                                    0.3914766

 L = 2.  Multiply by 1.3450342976 to convert [e a0^2] to [Debye ang]
 Quadrupole XX       :         -5.8564889            0.0000000           -5.8564889
 Quadrupole XY       :          0.0000000            0.0000000            0.0000000
 Quadrupole XZ       :          0.0000000            0.0000000            0.0000000
 Quadrupole YY       :         -4.3813595            0.0000000           -4.3813595
 Quadrupole YZ       :          0.0000000            0.0000000            0.0000000
 Quadrupole ZZ       :        -11.4990092            5.8188366           -5.6801726
 Traceless XX        :          1.3891303           -1.9396122           -0.5504819
 Traceless YY        :          2.8642597           -1.9396122            0.9246475
 Traceless ZZ        :         -4.2533900            3.8792244           -0.3741656

 ------------------------------------------------------------------------------------
  ==> Computing MBIS Charges <==

  Electron Count from Grid (Expected Number):  7.00000 ( 7.00000)
  Difference:  0.00000

  MBIS Charges: (a.u.)
   Center  Symbol  Z      Pop.       Charge
      1       C    6    6.028861   -0.028861
      2       H    1    0.971139    0.028861

  MBIS Dipoles: [e a0]
   Center  Symbol  Z        X           Y           Z
      1       C    6   -0.000000   -0.000000    0.250771
      2       H    1    0.000000   -0.000000    0.066787

  MBIS Quadrupoles: [e a0^2]
   Center  Symbol  Z      XX        XY        XZ        YY        YZ        ZZ
      1       C    6   -5.0856    0.0000   -0.0000   -3.6871    0.0000   -5.3007
      2       H    1   -0.7708    0.0000   -0.0000   -0.6943    0.0000   -0.7556

  MBIS Octupoles: [e a0^3]
   Center  Symbol  Z      XXX       XXY       XXZ       XYY       XYZ       XZZ       YYY       YYZ       YZZ       ZZZ
      1       C    6    0.0000    0.0000    0.3059   -0.0000   -0.0000   -0.0000   -0.0000    0.2781   -0.0000    0.5101
      2       H    1   -0.0000    0.0000    0.0033   -0.0000   -0.0000    0.0000    0.0000   -0.0613    0.0000   -0.0038

  MBIS Radial Moments:
   Center  Symbol  Z      [a0^2]      [a0^3]      [a0^4]
      1       C    6   14.073385   35.044656   104.354081
      2       H    1    2.220697    4.819984   12.581916

  MBIS Valence Widths: [a0]
   Center  Symbol  Z     Width
      1       C    6    0.523986
      2       H    1    0.438787

*** tstop() called on Mac.lan at Sun Aug 10 17:09:23 2025
Module time:
	user time   =       2.56 seconds =       0.04 minutes
	system time =       2.34 seconds =       0.04 minutes
	total time  =          0 seconds =       0.00 minutes
Total time:
	user time   =      11.56 seconds =       0.19 minutes
	system time =       4.78 seconds =       0.08 minutes
	total time  =          1 seconds =       0.02 minutes

    Psi4 stopped on: Sunday, 10 August 2025 05:09PM
    Psi4 wall time for execution: 0:00:01.59

*** Psi4 exiting successfully. Buy a developer a beer!
