                               Psi4 1.9.1 release

  ==> Input File <==

--------------------------------------------------------------------------
molecule {
0 1
O           0.000000           0.000000           0.000000
C           0.000000           0.000000           0.758414
}

set {
basis              cc-pvtz
reference          uks
maxiter            500
DAMPING_PERCENTAGE 1
E_CONVERGENCE      1.0E-8
D_CONVERGENCE      1.0E-8
DIIS_MAX_VECS      400
MBIS_MAXITER       8000
guess              read
}

E, wfn = energy('b3lyp', restart_file='last_wfn', return_wfn=True)
properties('b3lyp','MBIS_CHARGES', wfn=wfn)
wfn.to_file('last_wfn')
--------------------------------------------------------------------------

    Molecular point group: c2v
  Charge       = 0
  Multiplicity = 1
  Basis Set: CC-PVTZ
    Blend: CC-PVTZ
  Basis Set: (CC-PVTZ AUX)
    Blend: CC-PVTZ-JKFIT
  @DF-UKS Final Energy:  -112.54550847735665
    Total Energy =                       -112.5455084773566483
 Dipole X            :          0.0000000            0.0000000            0.0000000
 Dipole Y            :          0.0000000            0.0000000            0.0000000
 Dipole Z            :         -0.4824415           -0.0015621           -0.4840036
 Magnitude           :                                                    0.4840036
    Molecular point group: c2v

    Geometry (in Angstrom), charge = 0, multiplicity = 1:

       Center              X                  Y                   Z               Mass
    ------------   -----------------  -----------------  -----------------  -----------------
         O            0.000000000000     0.000000000000    -0.325093615168    15.994914619570
         C            0.000000000000     0.000000000000     0.433320384832    12.000000000000

  Charge       = 0
  Multiplicity = 1
  Basis Set: CC-PVTZ
    Blend: CC-PVTZ
  Basis Set: (CC-PVTZ AUX)
    Blend: CC-PVTZ-JKFIT

    Orbital Energies [Eh]
    ---------------------

    Alpha Occupied:

       1A1   -19.203415     2A1   -10.190823     3A1    -1.320058
       1B1    -0.662449     1B2    -0.662449     4A1    -0.574353
       5A1    -0.335914

    Alpha Virtual:

       2B2     0.119341     2B1     0.119341     6A1     0.169747
       7A1     0.303336     3B2     0.311459     3B1     0.311459
       8A1     0.544975     4B2     0.613689     4B1     0.613689
       1A2     0.634019     9A1     0.634019    10A1     0.865804
       5B2     1.041234     5B1     1.041234    11A1     1.299657
      12A1     1.613286     2A2     1.613286     6B2     1.646952
       6B1     1.646952    13A1     1.786417    14A1     2.236737
       7B2     2.266496     7B1     2.266496     8B2     2.635350
       8B1     2.635350    15A1     2.758923     3A2     2.886706
      16A1     2.886706     9B2     3.060900     9B1     3.060900
       4A2     3.141094    17A1     3.141095    18A1     3.178933
      10B1     3.873395    10B2     3.873395    11B2     4.244792
      11B1     4.244792    19A1     4.251604    12B2     5.217990
      12B1     5.217990    20A1     5.743136    21A1     6.192481
       5A2     6.192483    22A1     6.343363     6A2     6.343363
      23A1     6.531834    13B1     6.543922    13B2     6.543922
      24A1     7.300899    14B2     7.582999    14B1     7.582999
      25A1     9.941364    26A1    17.083403

    Beta Occupied:

       1A1   -19.203415     2A1   -10.190823     3A1    -1.320058
       1B1    -0.662449     1B2    -0.662449     4A1    -0.574353
       5A1    -0.335914

    Beta Virtual:

       2B2     0.119341     2B1     0.119341     6A1     0.169747
       7A1     0.303336     3B2     0.311459     3B1     0.311459
       8A1     0.544975     4B2     0.613689     4B1     0.613689
       1A2     0.634019     9A1     0.634019    10A1     0.865804
       5B2     1.041234     5B1     1.041234    11A1     1.299657
      12A1     1.613286     2A2     1.613286     6B2     1.646952
       6B1     1.646952    13A1     1.786417    14A1     2.236737
       7B2     2.266496     7B1     2.266496     8B2     2.635350
       8B1     2.635350    15A1     2.758923     3A2     2.886706
      16A1     2.886706     9B2     3.060900     9B1     3.060900
       4A2     3.141094    17A1     3.141095    18A1     3.178933
      10B1     3.873395    10B2     3.873395    11B2     4.244792
      11B1     4.244792    19A1     4.251604    12B2     5.217990
      12B1     5.217990    20A1     5.743136    21A1     6.192481
       5A2     6.192483    22A1     6.343363     6A2     6.343363
      23A1     6.531834    13B1     6.543922    13B2     6.543922
      24A1     7.300899    14B2     7.582999    14B1     7.582999
      25A1     9.941364    26A1    17.083403

    Final Occupation by Irrep:
             A1    A2    B1    B2
    DOCC [     5,    0,    1,    1 ]
    SOCC [     0,    0,    0,    0 ]
    NA   [     5,    0,    1,    1 ]
    NB   [     5,    0,    1,    1 ]

  @DF-UKS Final Energy:  -112.54550846154551

   => Energetics <=

    Nuclear Repulsion Energy =             33.4916102711184109
    One-Electron Energy =                -217.7436617632122875
    Two-Electron Energy =                  83.4517799043975259
    DFT Exchange-Correlation Energy =     -11.7452368738491693
    Empirical Dispersion Energy =           0.0000000000000000
    VV10 Nonlocal Energy =                  0.0000000000000000
    Total Energy =                       -112.5455084615455092

  UHF NO Occupations:
  HONO-2 :    3 A1 2.0000000
  HONO-1 :    4 A1 2.0000000
  HONO-0 :    5 A1 2.0000000
  LUNO+0 :    6 A1 0.0000000
  LUNO+1 :    7 A1 0.0000000
  LUNO+2 :    2 B2 0.0000000
  LUNO+3 :    8 A1 0.0000000

Computation Completed

Properties will be evaluated at   0.000000,   0.000000,   0.000000 [a0]

Properties computed using the B3LYP density matrix

 Multipole Moments:

 ------------------------------------------------------------------------------------
     Multipole            Electronic (a.u.)      Nuclear  (a.u.)        Total (a.u.)
 ------------------------------------------------------------------------------------

 L = 1.  Multiply by 2.5417464519 to convert [e a0] to [Debye]
 Dipole X            :          0.0000000            0.0000000            0.0000000
 Dipole Y            :          0.0000000            0.0000000            0.0000000
 Dipole Z            :         -0.4824415           -0.0015621           -0.4840036
 Magnitude           :                                                    0.4840036

 L = 2.  Multiply by 1.3450342976 to convert [e a0^2] to [Debye ang]
 Quadrupole XX       :         -6.7557429            0.0000000           -6.7557429
 Quadrupole XY       :          0.0000000            0.0000000            0.0000000
 Quadrupole XZ       :          0.0000000            0.0000000            0.0000000
 Quadrupole YY       :         -6.7557429            0.0000000           -6.7557429
 Quadrupole YZ       :          0.0000000            0.0000000            0.0000000
 Quadrupole ZZ       :        -15.7443463            7.0424477           -8.7018986
 Traceless XX        :          2.9962011           -2.3474826            0.6487185
 Traceless YY        :          2.9962011           -2.3474826            0.6487185
 Traceless ZZ        :         -5.9924022            4.6949651           -1.2974371

 ------------------------------------------------------------------------------------
  ==> Computing MBIS Charges <==

  Electron Count from Grid (Expected Number): 14.00000 (14.00000)
  Difference:  0.00000

  MBIS Charges: (a.u.)
   Center  Symbol  Z      Pop.       Charge
      1       O    8    7.888996    0.111004
      2       C    6    6.111006   -0.111006

  MBIS Dipoles: [e a0]
   Center  Symbol  Z        X           Y           Z
      1       O    8   -0.000000    0.000000   -0.007327
      2       C    6   -0.000000    0.000000   -0.317583

  MBIS Quadrupoles: [e a0^2]
   Center  Symbol  Z      XX        XY        XZ        YY        YZ        ZZ
      1       O    8   -2.8742   -0.0000   -0.0000   -2.8742    0.0000   -3.2945
      2       C    6   -3.8815   -0.0000    0.0000   -3.8815    0.0000   -4.8638

  MBIS Octupoles: [e a0^3]
   Center  Symbol  Z      XXX       XXY       XXZ       XYY       XYZ       XZZ       YYY       YYZ       YZZ       ZZZ
      1       O    8   -0.0000   -0.0000    0.0591   -0.0000   -0.0000   -0.0000    0.0000    0.0591   -0.0000    0.2797
      2       C    6   -0.0000    0.0000   -0.5969   -0.0000    0.0000   -0.0000    0.0000   -0.5969    0.0000   -1.5088

  MBIS Radial Moments:
   Center  Symbol  Z      [a0^2]      [a0^3]      [a0^4]
      1       O    8    9.042967   15.196829   30.753476
      2       C    6   12.626771   29.832735   83.914792

  MBIS Valence Widths: [a0]
   Center  Symbol  Z     Width
      1       O    8    0.346236
      2       C    6    0.486963

*** tstop() called on Mac.lan at Sun Aug 10 17:17:17 2025
Module time:
	user time   =       4.08 seconds =       0.07 minutes
	system time =       2.53 seconds =       0.04 minutes
	total time  =          0 seconds =       0.00 minutes
Total time:
	user time   =      14.95 seconds =       0.25 minutes
	system time =       4.71 seconds =       0.08 minutes
	total time  =          2 seconds =       0.03 minutes

    Psi4 stopped on: Sunday, 10 August 2025 05:17PM
    Psi4 wall time for execution: 0:00:01.91

*** Psi4 exiting successfully. Buy a developer a beer!
