                               Psi4 1.9.1 release

  ==> Input File <==

--------------------------------------------------------------------------
molecule {
0 2
O           0.000000           0.000000           0.000000
N           0.000000           0.000000           1.108533
}

set {
basis              cc-pvtz
reference          uks
maxiter            500
DAMPING_PERCENTAGE 1
E_CONVERGENCE      1.0E-8
D_CONVERGENCE      1.0E-8
DIIS_MAX_VECS      400
MBIS_MAXITER       8000
guess              read
}

E, wfn = energy('b3lyp', restart_file='last_wfn', return_wfn=True)
properties('b3lyp','MBIS_CHARGES', wfn=wfn)
wfn.to_file('last_wfn')
--------------------------------------------------------------------------

    Molecular point group: c2v
  Charge       = 0
  Multiplicity = 2
  Basis Set: CC-PVTZ
    Blend: CC-PVTZ
  Basis Set: (CC-PVTZ AUX)
    Blend: CC-PVTZ-JKFIT
  @DF-UKS Final Energy:  -129.93748336832334
    Total Energy =                       -129.9374833683233419
 Dipole X            :          0.0000000            0.0000000            0.0000000
 Dipole Y            :          0.0000000            0.0000000            0.0000000
 Dipole Z            :         -0.0766898           -0.0042032           -0.0808930
 Magnitude           :                                                    0.0808930
    Molecular point group: c2v

    Geometry (in Angstrom), charge = 0, multiplicity = 2:

       Center              X                  Y                   Z               Mass
    ------------   -----------------  -----------------  -----------------  -----------------
         O            0.000000000000     0.000000000000    -0.517463681646    15.994914619570
         N            0.000000000000     0.000000000000     0.591069318354    14.003074004430

  Charge       = 0
  Multiplicity = 2
  Basis Set: CC-PVTZ
    Blend: CC-PVTZ
  Basis Set: (CC-PVTZ AUX)
    Blend: CC-PVTZ-JKFIT

    Orbital Energies [Eh]
    ---------------------

    Alpha Occupied:

       1A1   -19.267781     2A1   -14.446990     3A1    -1.282754
       4A1    -0.685078     1B1    -0.557211     1B2    -0.530987
       5A1    -0.492052     2B1    -0.203150

    Alpha Virtual:

       2B2    -0.092109     6A1     0.241221     3B1     0.407600
       3B2     0.413374     7A1     0.444970     8A1     0.524323
       4B1     0.594014     4B2     0.601887     9A1     0.615846
       1A2     0.917323    10A1     0.919092     5B1     1.146490
       5B2     1.147517    11A1     1.171398     2A2     1.529012
      12A1     1.530263    13A1     1.672470     6B1     2.012071
       6B2     2.014467    14A1     2.228669     7B1     2.808411
       7B2     2.824264    15A1     3.071110     8B1     3.555929
       8B2     3.564278     3A2     3.766555    16A1     3.767795
       9B1     3.771695     9B2     3.772232    17A1     3.809275
      10B1     4.059140    10B2     4.059882    18A1     4.354100
       4A2     4.357279    19A1     4.366108    11B1     4.743422
      11B2     4.746053    20A1     4.895427    12B1     5.052449
      12B2     5.052574     5A2     5.610625    21A1     5.611792
       6A2     6.149433    22A1     6.151521    23A1     6.416177
      13B1     6.450306    13B2     6.453949    14B2     7.032373
      14B1     7.034304    24A1     7.044159    25A1     7.170295
      26A1    14.381492

    Beta Occupied:

       1A1   -19.256992     2A1   -14.431689     3A1    -1.262393
       4A1    -0.649796     1B2    -0.521304     1B1    -0.484774
       5A1    -0.466564

    Beta Virtual:

       2B2    -0.076865     2B1    -0.035627     6A1     0.246779
       3B2     0.418860     3B1     0.440879     7A1     0.458775
       8A1     0.533583     4B2     0.606084     4B1     0.623925
       9A1     0.633639     1A2     0.942964    10A1     0.943082
       5B2     1.150217     5B1     1.178227    11A1     1.180428
      12A1     1.552979     2A2     1.553096    13A1     1.686594
       6B2     2.017811     6B1     2.041253    14A1     2.241846
       7B2     2.836812     7B1     2.876304    15A1     3.085263
       8B2     3.571268     8B1     3.602619    16A1     3.788521
       3A2     3.789029     9B2     3.814816     9B1     3.814886
      17A1     3.826838    10B2     4.064576    10B1     4.096861
      18A1     4.371368     4A2     4.421007    19A1     4.425947
      11B2     4.750593    11B1     4.784401    20A1     4.911621
      12B2     5.077664    12B1     5.077674     5A2     5.631169
      21A1     5.631336    22A1     6.187533     6A2     6.187623
      23A1     6.427564    13B2     6.457880    13B1     6.487587
      14B2     7.035926    24A1     7.064632    14B1     7.065314
      25A1     7.182704    26A1    14.400205

    Final Occupation by Irrep:
             A1    A2    B1    B2
    DOCC [     5,    0,    1,    1 ]
    SOCC [     0,    0,    1,    0 ]
    NA   [     5,    0,    2,    1 ]
    NB   [     5,    0,    1,    1 ]

  @DF-UKS Final Energy:  -129.93748336871505

   => Energetics <=

    Nuclear Repulsion Energy =             26.7325589743561949
    One-Electron Energy =                -229.8473995489983679
    Two-Electron Energy =                  85.6349232967859564
    DFT Exchange-Correlation Energy =     -12.4575660908588155
    Empirical Dispersion Energy =           0.0000000000000000
    VV10 Nonlocal Energy =                  0.0000000000000000
    Total Energy =                       -129.9374833687150499

  UHF NO Occupations:
  HONO-2 :    5 A1 1.9995460
  HONO-1 :    1 B1 1.9992583
  HONO-0 :    2 B1 1.0000000
  LUNO+0 :    3 B1 0.0007417
  LUNO+1 :    6 A1 0.0004540
  LUNO+2 :    7 A1 0.0000951
  LUNO+3 :    2 B2 0.0000851

Computation Completed

Properties will be evaluated at   0.000000,   0.000000,   0.000000 [a0]

Properties computed using the B3LYP density matrix

 Multipole Moments:

 ------------------------------------------------------------------------------------
     Multipole            Electronic (a.u.)      Nuclear  (a.u.)        Total (a.u.)
 ------------------------------------------------------------------------------------

 L = 1.  Multiply by 2.5417464519 to convert [e a0] to [Debye]
 Dipole X            :          0.0000000            0.0000000            0.0000000
 Dipole Y            :          0.0000000            0.0000000            0.0000000
 Dipole Z            :         -0.0766898           -0.0042032           -0.0808930
 Magnitude           :                                                    0.0808930

 L = 2.  Multiply by 1.3450342976 to convert [e a0^2] to [Debye ang]
 Quadrupole XX       :         -7.8672776            0.0000000           -7.8672776
 Quadrupole XY       :          0.0000000            0.0000000            0.0000000
 Quadrupole XZ       :          0.0000000            0.0000000            0.0000000
 Quadrupole YY       :         -7.0351586            0.0000000           -7.0351586
 Quadrupole YZ       :          0.0000000            0.0000000            0.0000000
 Quadrupole ZZ       :        -24.8157212           16.3829379           -8.4327833
 Traceless XX        :          5.3721082           -5.4609793           -0.0888711
 Traceless YY        :          6.2042272           -5.4609793            0.7432479
 Traceless ZZ        :        -11.5763354           10.9219586           -0.6543768

 ------------------------------------------------------------------------------------
  ==> Computing MBIS Charges <==

  Electron Count from Grid (Expected Number): 15.00000 (15.00000)
  Difference:  0.00000

  MBIS Charges: (a.u.)
   Center  Symbol  Z      Pop.       Charge
      1       O    8    8.017631   -0.017631
      2       N    7    6.982370    0.017630

  MBIS Dipoles: [e a0]
   Center  Symbol  Z        X           Y           Z
      1       O    8    0.000000   -0.000000    0.060568
      2       N    7    0.000000    0.000000   -0.178393

  MBIS Quadrupoles: [e a0^2]
   Center  Symbol  Z      XX        XY        XZ        YY        YZ        ZZ
      1       O    8   -3.6714   -0.0000   -0.0000   -3.4127    0.0000   -3.7278
      2       N    7   -4.1958    0.0000    0.0000   -3.6224    0.0000   -4.1932

  MBIS Octupoles: [e a0^3]
   Center  Symbol  Z      XXX       XXY       XXZ       XYY       XYZ       XZZ       YYY       YYZ       YZZ       ZZZ
      1       O    8   -0.0000   -0.0000    0.1325    0.0000    0.0000   -0.0000   -0.0000    0.0741   -0.0000    0.0277
      2       N    7   -0.0000   -0.0000   -0.3299   -0.0000    0.0000    0.0000   -0.0000   -0.0700    0.0000   -0.0673

  MBIS Radial Moments:
   Center  Symbol  Z      [a0^2]      [a0^3]      [a0^4]
      1       O    8   10.811931   19.802404   43.570093
      2       N    7   12.011455   25.166218   62.929604

  MBIS Valence Widths: [a0]
   Center  Symbol  Z     Width
      1       O    8    0.376742
      2       N    7    0.435593

*** tstop() called on Mac.lan at Sun Aug 10 17:19:39 2025
Module time:
	user time   =       3.48 seconds =       0.06 minutes
	system time =       2.50 seconds =       0.04 minutes
	total time  =          1 seconds =       0.02 minutes
Total time:
	user time   =      19.81 seconds =       0.33 minutes
	system time =       4.70 seconds =       0.08 minutes
	total time  =          2 seconds =       0.03 minutes

    Psi4 stopped on: Sunday, 10 August 2025 05:19PM
    Psi4 wall time for execution: 0:00:02.37

*** Psi4 exiting successfully. Buy a developer a beer!
