                               Psi4 1.9.1 release

  ==> Input File <==

--------------------------------------------------------------------------
molecule {
0 1
O           0.000000           0.000000           0.000000
C           0.000000           0.000000           1.482355
}

set {
basis              cc-pvtz
reference          uks
maxiter            500
DAMPING_PERCENTAGE 1
E_CONVERGENCE      1.0E-8
D_CONVERGENCE      1.0E-8
DIIS_MAX_VECS      400
MBIS_MAXITER       8000
guess              read
}

E, wfn = energy('b3lyp', restart_file='last_wfn', return_wfn=True)
properties('b3lyp','MBIS_CHARGES', wfn=wfn)
wfn.to_file('last_wfn')
--------------------------------------------------------------------------

    Molecular point group: c2v
  Charge       = 0
  Multiplicity = 1
  Basis Set: CC-PVTZ
    Blend: CC-PVTZ
  Basis Set: (CC-PVTZ AUX)
    Blend: CC-PVTZ-JKFIT
  @DF-UKS Final Energy:  -113.22101588695567
    Total Energy =                       -113.2210158869556693
 Dipole X            :          0.0000000            0.0000000            0.0000000
 Dipole Y            :          0.0000000            0.0000000            0.0000000
 Dipole Z            :          0.4419885           -0.0030531            0.4389353
 Magnitude           :                                                    0.4389353
    Molecular point group: c2v

    Geometry (in Angstrom), charge = 0, multiplicity = 1:

       Center              X                  Y                   Z               Mass
    ------------   -----------------  -----------------  -----------------  -----------------
         O            0.000000000000     0.000000000000    -0.635410403701    15.994914619570
         C            0.000000000000     0.000000000000     0.846944596299    12.000000000000

  Charge       = 0
  Multiplicity = 1
  Basis Set: CC-PVTZ
    Blend: CC-PVTZ
  Basis Set: (CC-PVTZ AUX)
    Blend: CC-PVTZ-JKFIT

    Orbital Energies [Eh]
    ---------------------

    Alpha Occupied:

       1A1   -19.236518     2A1   -10.391330     3A1    -1.006646
       4A1    -0.589263     5A1    -0.394479     1B1    -0.387705
       1B2    -0.387705

    Alpha Virtual:

       2B1    -0.135410     2B2    -0.135410     6A1     0.085292
       3B1     0.286928     3B2     0.286928     7A1     0.287470
       8A1     0.313727     9A1     0.544406     4B2     0.612719
       4B1     0.612719     1A2     0.631992    10A1     0.631992
       5B1     0.753118     5B2     0.753118    11A1     1.010018
      12A1     1.198248    13A1     1.463876     2A2     1.463877
       6B1     1.666480     6B2     1.666480    14A1     1.920809
       7B1     1.963626     7B2     1.963626    15A1     2.204436
       8B1     2.614125     8B2     2.614125     3A2     2.661155
      16A1     2.661155     9B2     2.821376     9B1     2.821376
       4A2     2.879587    17A1     2.879589    18A1     2.894139
      10B1     3.094241    10B2     3.094241    19A1     3.173236
      20A1     3.706437    11B2     3.722844    11B1     3.722844
      21A1     5.002256    12B1     5.085128    12B2     5.085128
      22A1     5.172532     5A2     5.172533    13B2     5.495497
      13B1     5.495497    23A1     5.974725     6A2     6.174641
      24A1     6.174685    14B2     6.546899    14B1     6.546899
      25A1     7.195040    26A1     8.485575

    Beta Occupied:

       1A1   -19.236518     2A1   -10.391330     3A1    -1.006646
       4A1    -0.589263     5A1    -0.394479     1B1    -0.387705
       1B2    -0.387705

    Beta Virtual:

       2B1    -0.135410     2B2    -0.135410     6A1     0.085292
       3B1     0.286928     3B2     0.286928     7A1     0.287470
       8A1     0.313727     9A1     0.544406     4B2     0.612719
       4B1     0.612719     1A2     0.631992    10A1     0.631992
       5B1     0.753118     5B2     0.753118    11A1     1.010018
      12A1     1.198248    13A1     1.463876     2A2     1.463877
       6B1     1.666480     6B2     1.666480    14A1     1.920809
       7B1     1.963626     7B2     1.963626    15A1     2.204436
       8B1     2.614125     8B2     2.614125     3A2     2.661155
      16A1     2.661155     9B2     2.821376     9B1     2.821376
       4A2     2.879587    17A1     2.879589    18A1     2.894139
      10B1     3.094241    10B2     3.094241    19A1     3.173236
      20A1     3.706437    11B2     3.722844    11B1     3.722844
      21A1     5.002256    12B1     5.085128    12B2     5.085128
      22A1     5.172532     5A2     5.172533    13B2     5.495497
      13B1     5.495497    23A1     5.974725     6A2     6.174641
      24A1     6.174685    14B2     6.546899    14B1     6.546899
      25A1     7.195040    26A1     8.485575

    Final Occupation by Irrep:
             A1    A2    B1    B2
    DOCC [     5,    0,    1,    1 ]
    SOCC [     0,    0,    0,    0 ]
    NA   [     5,    0,    1,    1 ]
    NB   [     5,    0,    1,    1 ]

  @DF-UKS Final Energy:  -113.22101588695088

   => Energetics <=

    Nuclear Repulsion Energy =             17.1352382608484568
    One-Electron Energy =                -187.9823525961893438
    Two-Electron Energy =                  68.6585393508382396
    DFT Exchange-Correlation Energy =     -11.0324409024482364
    Empirical Dispersion Energy =           0.0000000000000000
    VV10 Nonlocal Energy =                  0.0000000000000000
    Total Energy =                       -113.2210158869508803

  UHF NO Occupations:
  HONO-2 :    3 A1 2.0000000
  HONO-1 :    4 A1 2.0000000
  HONO-0 :    5 A1 2.0000000
  LUNO+0 :    6 A1 0.0000000
  LUNO+1 :    7 A1 0.0000000
  LUNO+2 :    8 A1 0.0000000
  LUNO+3 :    2 B2 0.0000000

Computation Completed

Properties will be evaluated at   0.000000,   0.000000,   0.000000 [a0]

Properties computed using the B3LYP density matrix

 Multipole Moments:

 ------------------------------------------------------------------------------------
     Multipole            Electronic (a.u.)      Nuclear  (a.u.)        Total (a.u.)
 ------------------------------------------------------------------------------------

 L = 1.  Multiply by 2.5417464519 to convert [e a0] to [Debye]
 Dipole X            :          0.0000000            0.0000000            0.0000000
 Dipole Y            :          0.0000000            0.0000000            0.0000000
 Dipole Z            :          0.4419885           -0.0030531            0.4389353
 Magnitude           :                                                    0.4389353

 L = 2.  Multiply by 1.3450342976 to convert [e a0^2] to [Debye ang]
 Quadrupole XX       :         -8.0533644            0.0000000           -8.0533644
 Quadrupole XY       :          0.0000000            0.0000000            0.0000000
 Quadrupole XZ       :          0.0000000            0.0000000            0.0000000
 Quadrupole YY       :         -8.0533644            0.0000000           -8.0533644
 Quadrupole YZ       :          0.0000000            0.0000000            0.0000000
 Quadrupole ZZ       :        -35.6572345           26.9039094           -8.7533250
 Traceless XX        :          9.2012900           -8.9679698            0.2333202
 Traceless YY        :          9.2012900           -8.9679698            0.2333202
 Traceless ZZ        :        -18.4025800           17.9359396           -0.4666404

 ------------------------------------------------------------------------------------
  ==> Computing MBIS Charges <==

  Electron Count from Grid (Expected Number): 14.00000 (14.00000)
  Difference: -0.00000

  MBIS Charges: (a.u.)
   Center  Symbol  Z      Pop.       Charge
      1       O    8    8.275869   -0.275869
      2       C    6    5.724130    0.275870

  MBIS Dipoles: [e a0]
   Center  Symbol  Z        X           Y           Z
      1       O    8    0.000000   -0.000000   -0.128185
      2       C    6    0.000000   -0.000000   -0.205660

  MBIS Quadrupoles: [e a0^2]
   Center  Symbol  Z      XX        XY        XZ        YY        YZ        ZZ
      1       O    8   -4.0879   -0.0000    0.0000   -4.0879    0.0000   -4.1255
      2       C    6   -3.9655   -0.0000    0.0000   -3.9655    0.0000   -4.5863

  MBIS Octupoles: [e a0^3]
   Center  Symbol  Z      XXX       XXY       XXZ       XYY       XYZ       XZZ       YYY       YYZ       YZZ       ZZZ
      1       O    8   -0.0000   -0.0000   -0.1204   -0.0000   -0.0000   -0.0000   -0.0000   -0.1204   -0.0000   -0.4130
      2       C    6   -0.0000   -0.0000   -0.0050   -0.0000    0.0000   -0.0000    0.0000   -0.0050    0.0000   -0.2080

  MBIS Radial Moments:
   Center  Symbol  Z      [a0^2]      [a0^3]      [a0^4]
      1       O    8   12.301236   23.578915   54.021784
      2       C    6   12.517255   30.177299   86.308289

  MBIS Valence Widths: [a0]
   Center  Symbol  Z     Width
      1       O    8    0.394994
      2       C    6    0.513140

*** tstop() called on Mac.lan at Sun Aug 10 17:18:38 2025
Module time:
	user time   =       5.17 seconds =       0.09 minutes
	system time =       1.97 seconds =       0.03 minutes
	total time  =          0 seconds =       0.00 minutes
Total time:
	user time   =      19.54 seconds =       0.33 minutes
	system time =       4.04 seconds =       0.07 minutes
	total time  =          2 seconds =       0.03 minutes

    Psi4 stopped on: Sunday, 10 August 2025 05:18PM
    Psi4 wall time for execution: 0:00:02.30

*** Psi4 exiting successfully. Buy a developer a beer!
