                               Psi4 1.9.1 release

  ==> Input File <==

--------------------------------------------------------------------------
molecule {
0 2
O           0.000000           0.000000           0.000000
H           0.000000           0.000000           0.906980
}

set {
basis              cc-pvtz
reference          uks
maxiter            500
DAMPING_PERCENTAGE 1
E_CONVERGENCE      1.0E-8
D_CONVERGENCE      1.0E-8
DIIS_MAX_VECS      400
MBIS_MAXITER       8000
guess              read
}

E, wfn = energy('b3lyp', restart_file='last_wfn', return_wfn=True)
properties('b3lyp','MBIS_CHARGES', wfn=wfn)
wfn.to_file('last_wfn')
--------------------------------------------------------------------------

    Molecular point group: c2v
  Charge       = 0
  Multiplicity = 2
  Basis Set: CC-PVTZ
    Blend: CC-PVTZ
  Basis Set: (CC-PVTZ AUX)
    Blend: CC-PVTZ-JKFIT
  @DF-UKS Final Energy:   -75.75943396487531
    Total Energy =                        -75.7594339648753134
 Dipole X            :          0.0000000            0.0000000            0.0000000
 Dipole Y            :          0.0000000            0.0000000            0.0000000
 Dipole Z            :         -0.1479931            0.7996088            0.6516157
 Magnitude           :                                                    0.6516157
    Molecular point group: c2v

    Geometry (in Angstrom), charge = 0, multiplicity = 2:

       Center              X                  Y                   Z               Mass
    ------------   -----------------  -----------------  -----------------  -----------------
         O            0.000000000000     0.000000000000    -0.053760580145    15.994914619570
         H            0.000000000000     0.000000000000     0.853219419855     1.007825032230

  Charge       = 0
  Multiplicity = 2
  Basis Set: CC-PVTZ
    Blend: CC-PVTZ
  Basis Set: (CC-PVTZ AUX)
    Blend: CC-PVTZ-JKFIT

    Orbital Energies [Eh]
    ---------------------

    Alpha Occupied:

       1A1   -19.191644     2A1    -1.038057     3A1    -0.487363
       1B1    -0.420197     1B2    -0.347405

    Alpha Virtual:

       4A1     0.040217     5A1     0.405548     6A1     0.508819
       2B1     0.529150     2B2     0.564956     3B1     0.696840
       3B2     0.713369     7A1     0.849593     8A1     1.330318
       1A2     1.416859     9A1     1.417622     4B1     1.757338
       4B2     1.795828    10A1     1.839447    11A1     2.479014
       2A2     3.206900    12A1     3.207069     5B1     3.343866
       5B2     3.381032     6B1     3.587558     6B2     3.620420
      13A1     3.745440     7B1     4.100516     7B2     4.133257
      14A1     4.451804    15A1     4.715218     8B1     5.065778
       8B2     5.066041     3A2     5.420485    16A1     5.421136
      17A1     6.135642     4A2     6.135725     9B1     6.320846
       9B2     6.379920    18A1     6.526668    10B1     6.751440
      10B2     6.794304    19A1     7.094015    20A1    10.759652

    Beta Occupied:

       1A1   -19.166481     2A1    -0.969288     3A1    -0.460451
       1B2    -0.321927

    Beta Virtual:

       1B1    -0.173307     4A1     0.046139     5A1     0.413041
       6A1     0.516324     2B2     0.575564     2B1     0.602562
       3B2     0.712802     3B1     0.712886     7A1     0.876296
       8A1     1.344590     1A2     1.469091     9A1     1.475121
       4B2     1.801845     4B1     1.806983    10A1     1.854478
      11A1     2.487391     2A2     3.215146    12A1     3.215928
       5B2     3.386981     5B1     3.399744     6B2     3.627334
       6B1     3.641916    13A1     3.749988     7B2     4.138209
       7B1     4.141750    14A1     4.480700    15A1     4.743201
       8B2     5.135938     8B1     5.138917     3A2     5.465444
      16A1     5.470447     4A2     6.227200    17A1     6.241532
       9B2     6.393408     9B1     6.414167    18A1     6.550699
      10B2     6.800484    10B1     6.803710    19A1     7.119214
      20A1    10.793352

    Final Occupation by Irrep:
             A1    A2    B1    B2
    DOCC [     3,    0,    0,    1 ]
    SOCC [     0,    0,    1,    0 ]
    NA   [     3,    0,    1,    1 ]
    NB   [     3,    0,    0,    1 ]

  @DF-UKS Final Energy:   -75.75943396509166

   => Energetics <=

    Nuclear Repulsion Energy =              4.6675976155593286
    One-Electron Energy =                -113.2641137095317561
    Two-Electron Energy =                  40.0552918865386971
    DFT Exchange-Correlation Energy =      -7.2182097576579372
    Empirical Dispersion Energy =           0.0000000000000000
    VV10 Nonlocal Energy =                  0.0000000000000000
    Total Energy =                        -75.7594339650916595

  UHF NO Occupations:
  HONO-2 :    2 A1 1.9998058
  HONO-1 :    3 A1 1.9993349
  HONO-0 :    1 B1 1.0000000
  LUNO+0 :    4 A1 0.0006651
  LUNO+1 :    5 A1 0.0001942
  LUNO+2 :    2 B2 0.0001513
  LUNO+3 :    6 A1 0.0000006

Computation Completed

Properties will be evaluated at   0.000000,   0.000000,   0.000000 [a0]

Properties computed using the B3LYP density matrix

 Multipole Moments:

 ------------------------------------------------------------------------------------
     Multipole            Electronic (a.u.)      Nuclear  (a.u.)        Total (a.u.)
 ------------------------------------------------------------------------------------

 L = 1.  Multiply by 2.5417464519 to convert [e a0] to [Debye]
 Dipole X            :          0.0000000            0.0000000            0.0000000
 Dipole Y            :          0.0000000            0.0000000            0.0000000
 Dipole Z            :         -0.1479931            0.7996088            0.6516157
 Magnitude           :                                                    0.6516157

 L = 2.  Multiply by 1.3450342976 to convert [e a0^2] to [Debye ang]
 Quadrupole XX       :         -3.9588474            0.0000000           -3.9588474
 Quadrupole XY       :          0.0000000            0.0000000            0.0000000
 Quadrupole XZ       :          0.0000000            0.0000000            0.0000000
 Quadrupole YY       :         -4.8502932            0.0000000           -4.8502932
 Quadrupole YZ       :          0.0000000            0.0000000            0.0000000
 Quadrupole ZZ       :         -6.0404318            2.6822446           -3.3581872
 Traceless XX        :          0.9910101           -0.8940815            0.0969286
 Traceless YY        :          0.0995643           -0.8940815           -0.7945173
 Traceless ZZ        :         -1.0905743            1.7881630            0.6975887

 ------------------------------------------------------------------------------------
  ==> Computing MBIS Charges <==

  Electron Count from Grid (Expected Number):  9.00000 ( 9.00000)
  Difference: -0.00000

  MBIS Charges: (a.u.)
   Center  Symbol  Z      Pop.       Charge
      1       O    8    8.393876   -0.393876
      2       H    1    0.606124    0.393876

  MBIS Dipoles: [e a0]
   Center  Symbol  Z        X           Y           Z
      1       O    8    0.000000   -0.000000   -0.050550
      2       H    1   -0.000000   -0.000000    0.027085

  MBIS Quadrupoles: [e a0^2]
   Center  Symbol  Z      XX        XY        XZ        YY        YZ        ZZ
      1       O    8   -3.6968   -0.0000    0.0000   -4.5538   -0.0000   -4.2014
      2       H    1   -0.2621    0.0000   -0.0000   -0.2965   -0.0000   -0.2743

  MBIS Octupoles: [e a0^3]
   Center  Symbol  Z      XXX       XXY       XXZ       XYY       XYZ       XZZ       YYY       YYZ       YZZ       ZZZ
      1       O    8    0.0000   -0.0000   -0.0230    0.0000   -0.0000   -0.0000   -0.0000   -0.0486   -0.0000   -0.2830
      2       H    1   -0.0000   -0.0000   -0.0041    0.0000    0.0000   -0.0000   -0.0000    0.0068   -0.0000    0.0114

  MBIS Radial Moments:
   Center  Symbol  Z      [a0^2]      [a0^3]      [a0^4]
      1       O    8   12.452027   23.864723   54.670325
      2       H    1    0.832797    1.404845    2.833818

  MBIS Valence Widths: [a0]
   Center  Symbol  Z     Width
      1       O    8    0.393386
      2       H    1    0.339095

*** tstop() called on Mac.lan at Sun Aug 10 17:10:29 2025
Module time:
	user time   =       3.32 seconds =       0.06 minutes
	system time =       1.99 seconds =       0.03 minutes
	total time  =          0 seconds =       0.00 minutes
Total time:
	user time   =      11.97 seconds =       0.20 minutes
	system time =       4.51 seconds =       0.08 minutes
	total time  =          1 seconds =       0.02 minutes

    Psi4 stopped on: Sunday, 10 August 2025 05:10PM
    Psi4 wall time for execution: 0:00:01.62

*** Psi4 exiting successfully. Buy a developer a beer!
