                               Psi4 1.9.1 release

  ==> Input File <==

--------------------------------------------------------------------------
molecule {
0 2
O           0.000000           0.000000           0.000000
H           0.000000           0.000000           1.085989
}

set {
basis              cc-pvtz
reference          uks
maxiter            500
DAMPING_PERCENTAGE 1
E_CONVERGENCE      1.0E-8
D_CONVERGENCE      1.0E-8
DIIS_MAX_VECS      400
MBIS_MAXITER       8000
guess              read
}

E, wfn = energy('b3lyp', restart_file='last_wfn', return_wfn=True)
properties('b3lyp','MBIS_CHARGES', wfn=wfn)
wfn.to_file('last_wfn')
--------------------------------------------------------------------------

    Molecular point group: c2v
  Charge       = 0
  Multiplicity = 2
  Basis Set: CC-PVTZ
    Blend: CC-PVTZ
  Basis Set: (CC-PVTZ AUX)
    Blend: CC-PVTZ-JKFIT
  @DF-UKS Final Energy:   -75.75563006149214
    Total Energy =                        -75.7556300614921412
 Dipole X            :          0.0000000            0.0000000            0.0000000
 Dipole Y            :          0.0000000            0.0000000            0.0000000
 Dipole Z            :         -0.2763521            0.9574262            0.6810741
 Magnitude           :                                                    0.6810741
    Molecular point group: c2v

    Geometry (in Angstrom), charge = 0, multiplicity = 2:

       Center              X                  Y                   Z               Mass
    ------------   -----------------  -----------------  -----------------  -----------------
         O            0.000000000000     0.000000000000    -0.064371208484    15.994914619570
         H            0.000000000000     0.000000000000     1.021617791516     1.007825032230

  Charge       = 0
  Multiplicity = 2
  Basis Set: CC-PVTZ
    Blend: CC-PVTZ
  Basis Set: (CC-PVTZ AUX)
    Blend: CC-PVTZ-JKFIT

    Orbital Energies [Eh]
    ---------------------

    Alpha Occupied:

       1A1   -19.203650     2A1    -0.991979     3A1    -0.460768
       1B1    -0.412757     1B2    -0.339720

    Alpha Virtual:

       4A1     0.003837     5A1     0.314874     2B1     0.520226
       6A1     0.531877     2B2     0.554042     3B1     0.680041
       3B2     0.695610     7A1     0.900213     8A1     1.138944
       1A2     1.424227     9A1     1.424802     4B1     1.672970
       4B2     1.711182    10A1     1.986247    11A1     2.337756
       2A2     3.159793    12A1     3.159912     5B1     3.258190
       5B2     3.293098    13A1     3.526888     6B1     3.614061
       6B2     3.637452     7B1     3.899922     7B2     3.936008
      14A1     4.023694    15A1     4.748451     8B1     5.073130
       8B2     5.073384     3A2     5.230894    16A1     5.232006
       9B1     5.958959     9B2     6.009407    17A1     6.133758
       4A2     6.135165    18A1     6.155387    10B1     6.455507
      10B2     6.508675    19A1     6.830594    20A1     9.185362

    Beta Occupied:

       1A1   -19.177924     2A1    -0.918669     3A1    -0.437262
       1B2    -0.313954

    Beta Virtual:

       1B1    -0.165128     4A1     0.011651     5A1     0.318297
       6A1     0.541091     2B2     0.563100     2B1     0.587590
       3B2     0.694788     3B1     0.696901     7A1     0.932117
       8A1     1.146274     1A2     1.476377     9A1     1.482357
       4B2     1.717423     4B1     1.723537    10A1     2.001265
      11A1     2.338968     2A2     3.160831    12A1     3.161300
       5B2     3.298345     5B1     3.311632    13A1     3.532461
       6B2     3.637182     6B1     3.644399     7B2     3.943314
       7B1     3.953425    14A1     4.037854    15A1     4.776167
       8B2     5.143297     8B1     5.146294     3A2     5.276912
      16A1     5.282000     9B2     6.020300     9B1     6.032377
      17A1     6.180498     4A2     6.227586    18A1     6.241983
      10B2     6.519800    10B1     6.534524    19A1     6.865295
      20A1     9.221113

    Final Occupation by Irrep:
             A1    A2    B1    B2
    DOCC [     3,    0,    0,    1 ]
    SOCC [     0,    0,    1,    0 ]
    NA   [     3,    0,    1,    1 ]
    NB   [     3,    0,    0,    1 ]

  @DF-UKS Final Energy:   -75.75563006236963

   => Energetics <=

    Nuclear Repulsion Energy =              3.8982141489094273
    One-Electron Energy =                -111.9078263728073637
    Two-Electron Energy =                  39.4084890035159034
    DFT Exchange-Correlation Energy =      -7.1545068419876152
    Empirical Dispersion Energy =           0.0000000000000000
    VV10 Nonlocal Energy =                  0.0000000000000000
    Total Energy =                        -75.7556300623696330

  UHF NO Occupations:
  HONO-2 :    2 A1 1.9995841
  HONO-1 :    3 A1 1.9991893
  HONO-0 :    1 B1 1.0000000
  LUNO+0 :    4 A1 0.0008107
  LUNO+1 :    5 A1 0.0004159
  LUNO+2 :    2 B2 0.0001612
  LUNO+3 :    6 A1 0.0000006

Computation Completed

Properties will be evaluated at   0.000000,   0.000000,   0.000000 [a0]

Properties computed using the B3LYP density matrix

 Multipole Moments:

 ------------------------------------------------------------------------------------
     Multipole            Electronic (a.u.)      Nuclear  (a.u.)        Total (a.u.)
 ------------------------------------------------------------------------------------

 L = 1.  Multiply by 2.5417464519 to convert [e a0] to [Debye]
 Dipole X            :          0.0000000            0.0000000            0.0000000
 Dipole Y            :          0.0000000            0.0000000            0.0000000
 Dipole Z            :         -0.2763521            0.9574262            0.6810741
 Magnitude           :                                                    0.6810741

 L = 2.  Multiply by 1.3450342976 to convert [e a0^2] to [Debye ang]
 Quadrupole XX       :         -4.0886385            0.0000000           -4.0886385
 Quadrupole XY       :          0.0000000            0.0000000            0.0000000
 Quadrupole XZ       :          0.0000000            0.0000000            0.0000000
 Quadrupole YY       :         -4.9861649            0.0000000           -4.9861649
 Quadrupole YZ       :          0.0000000            0.0000000            0.0000000
 Quadrupole ZZ       :         -6.9398008            3.8455088           -3.0942921
 Traceless XX        :          1.2495629           -1.2818363           -0.0322734
 Traceless YY        :          0.3520365           -1.2818363           -0.9297997
 Traceless ZZ        :         -1.6015994            2.5636725            0.9620731

 ------------------------------------------------------------------------------------
  ==> Computing MBIS Charges <==

  Electron Count from Grid (Expected Number):  9.00000 ( 9.00000)
  Difference:  0.00000

  MBIS Charges: (a.u.)
   Center  Symbol  Z      Pop.       Charge
      1       O    8    8.355327   -0.355327
      2       H    1    0.644673    0.355327

  MBIS Dipoles: [e a0]
   Center  Symbol  Z        X           Y           Z
      1       O    8   -0.000000   -0.000000   -0.087277
      2       H    1    0.000000   -0.000000    0.039141

  MBIS Quadrupoles: [e a0^2]
   Center  Symbol  Z      XX        XY        XZ        YY        YZ        ZZ
      1       O    8   -3.7235    0.0000   -0.0000   -4.5803   -0.0000   -4.2194
      2       H    1   -0.3651   -0.0000    0.0000   -0.4059   -0.0000   -0.3663

  MBIS Octupoles: [e a0^3]
   Center  Symbol  Z      XXX       XXY       XXZ       XYY       XYZ       XZZ       YYY       YYZ       YZZ       ZZZ
      1       O    8   -0.0000   -0.0000   -0.0937   -0.0000   -0.0000    0.0000   -0.0000   -0.0979   -0.0000   -0.4372
      2       H    1    0.0000   -0.0000   -0.0042    0.0000   -0.0000    0.0000   -0.0000    0.0178   -0.0000    0.0367

  MBIS Radial Moments:
   Center  Symbol  Z      [a0^2]      [a0^3]      [a0^4]
      1       O    8   12.523251   24.134910   55.595548
      2       H    1    1.137300    2.167147    4.938266

  MBIS Valence Widths: [a0]
   Center  Symbol  Z     Width
      1       O    8    0.395924
      2       H    1    0.384672

*** tstop() called on Mac.lan at Sun Aug 10 17:11:20 2025
Module time:
	user time   =       2.93 seconds =       0.05 minutes
	system time =       2.07 seconds =       0.03 minutes
	total time  =          0 seconds =       0.00 minutes
Total time:
	user time   =      12.78 seconds =       0.21 minutes
	system time =       4.31 seconds =       0.07 minutes
	total time  =          1 seconds =       0.02 minutes

    Psi4 stopped on: Sunday, 10 August 2025 05:11PM
    Psi4 wall time for execution: 0:00:01.68

*** Psi4 exiting successfully. Buy a developer a beer!
