                               Psi4 1.9.1 release

  ==> Input File <==

--------------------------------------------------------------------------
molecule {
0 2
O           0.000000           0.000000           0.000000
H           0.000000           0.000000           1.264998
}

set {
basis              cc-pvtz
reference          uks
maxiter            500
DAMPING_PERCENTAGE 1
E_CONVERGENCE      1.0E-8
D_CONVERGENCE      1.0E-8
DIIS_MAX_VECS      400
MBIS_MAXITER       8000
guess              read
}

E, wfn = energy('b3lyp', restart_file='last_wfn', return_wfn=True)
properties('b3lyp','MBIS_CHARGES', wfn=wfn)
wfn.to_file('last_wfn')
--------------------------------------------------------------------------

    Molecular point group: c2v
  Charge       = 0
  Multiplicity = 2
  Basis Set: CC-PVTZ
    Blend: CC-PVTZ
  Basis Set: (CC-PVTZ AUX)
    Blend: CC-PVTZ-JKFIT
  @DF-UKS Final Energy:   -75.72340671085476
    Total Energy =                        -75.7234067108547606
 Dipole X            :          0.0000000            0.0000000            0.0000000
 Dipole Y            :          0.0000000            0.0000000            0.0000000
 Dipole Z            :         -0.4168569            1.1152435            0.6983867
 Magnitude           :                                                    0.6983867
    Molecular point group: c2v

    Geometry (in Angstrom), charge = 0, multiplicity = 2:

       Center              X                  Y                   Z               Mass
    ------------   -----------------  -----------------  -----------------  -----------------
         O            0.000000000000     0.000000000000    -0.074981836823    15.994914619570
         H            0.000000000000     0.000000000000     1.190016163177     1.007825032230

  Charge       = 0
  Multiplicity = 2
  Basis Set: CC-PVTZ
    Blend: CC-PVTZ
  Basis Set: (CC-PVTZ AUX)
    Blend: CC-PVTZ-JKFIT

    Orbital Energies [Eh]
    ---------------------

    Alpha Occupied:

       1A1   -19.212768     2A1    -0.967373     3A1    -0.436166
       1B1    -0.409184     1B2    -0.335666

    Alpha Virtual:

       4A1    -0.044962     5A1     0.266768     2B1     0.506195
       2B2     0.536070     6A1     0.556563     3B1     0.674409
       3B2     0.690886     7A1     0.870455     8A1     1.062867
       1A2     1.432132     9A1     1.432911     4B1     1.585289
       4B2     1.623077    10A1     2.053095    11A1     2.308837
       2A2     3.150007    12A1     3.150063     5B1     3.214248
       5B2     3.241520    13A1     3.255434     6B1     3.615453
       6B2     3.636138     7B1     3.718182     7B2     3.756519
      14A1     3.834072    15A1     4.744446     8B1     5.076899
       8B2     5.077164     3A2     5.129627    16A1     5.131469
       9B1     5.538551     9B2     5.586974    17A1     5.964300
      18A1     6.125247     4A2     6.125635    10B1     6.365553
      10B2     6.423080    19A1     6.875221    20A1     8.004683

    Beta Occupied:

       1A1   -19.186049     2A1    -0.889021     3A1    -0.414511
       1B2    -0.309152

    Beta Virtual:

       1B1    -0.159686     4A1    -0.036425     5A1     0.264772
       2B2     0.541799     2B1     0.561351     6A1     0.568820
       3B2     0.690286     3B1     0.696918     7A1     0.895571
       8A1     1.074689     1A2     1.484606     9A1     1.490675
       4B2     1.629992     4B1     1.637002    10A1     2.073869
      11A1     2.296668     2A2     3.142606    12A1     3.142836
       5B2     3.241948     5B1     3.250797    13A1     3.263963
       6B2     3.627774     6B1     3.630790     7B2     3.766314
       7B1     3.785767    14A1     3.835968    15A1     4.767021
       8B2     5.147338     8B1     5.150344     3A2     5.177734
      16A1     5.182975     9B2     5.597712     9B1     5.605090
      17A1     5.992108     4A2     6.218994    18A1     6.233579
      10B2     6.439099    10B1     6.460475    19A1     6.919103
      20A1     8.043852

    Final Occupation by Irrep:
             A1    A2    B1    B2
    DOCC [     3,    0,    0,    1 ]
    SOCC [     0,    0,    1,    0 ]
    NA   [     3,    0,    1,    1 ]
    NB   [     3,    0,    0,    1 ]

  @DF-UKS Final Energy:   -75.72340671126607

   => Energetics <=

    Nuclear Repulsion Energy =              3.3465805363802952
    One-Electron Energy =                -110.8674210353631508
    Two-Electron Energy =                  38.9073819815633613
    DFT Exchange-Correlation Energy =      -7.1099481938465718
    Empirical Dispersion Energy =           0.0000000000000000
    VV10 Nonlocal Energy =                  0.0000000000000000
    Total Energy =                        -75.7234067112660654

  UHF NO Occupations:
  HONO-2 :    2 A1 1.9994643
  HONO-1 :    3 A1 1.9978283
  HONO-0 :    1 B1 1.0000000
  LUNO+0 :    4 A1 0.0021717
  LUNO+1 :    5 A1 0.0005357
  LUNO+2 :    2 B2 0.0001734
  LUNO+3 :    6 A1 0.0000006

Computation Completed

Properties will be evaluated at   0.000000,   0.000000,   0.000000 [a0]

Properties computed using the B3LYP density matrix

 Multipole Moments:

 ------------------------------------------------------------------------------------
     Multipole            Electronic (a.u.)      Nuclear  (a.u.)        Total (a.u.)
 ------------------------------------------------------------------------------------

 L = 1.  Multiply by 2.5417464519 to convert [e a0] to [Debye]
 Dipole X            :          0.0000000            0.0000000            0.0000000
 Dipole Y            :          0.0000000            0.0000000            0.0000000
 Dipole Z            :         -0.4168569            1.1152435            0.6983867
 Magnitude           :                                                    0.6983867

 L = 2.  Multiply by 1.3450342976 to convert [e a0^2] to [Debye ang]
 Quadrupole XX       :         -4.2063742            0.0000000           -4.2063742
 Quadrupole XY       :          0.0000000            0.0000000            0.0000000
 Quadrupole XZ       :          0.0000000            0.0000000            0.0000000
 Quadrupole YY       :         -5.1048926            0.0000000           -5.1048926
 Quadrupole YZ       :          0.0000000            0.0000000            0.0000000
 Quadrupole ZZ       :         -8.0174017            5.2177424           -2.7996594
 Traceless XX        :          1.5698486           -1.7392475           -0.1693988
 Traceless YY        :          0.6713303           -1.7392475           -1.0679172
 Traceless ZZ        :         -2.2411789            3.4784949            1.2373160

 ------------------------------------------------------------------------------------
  ==> Computing MBIS Charges <==

  Electron Count from Grid (Expected Number):  9.00000 ( 9.00000)
  Difference:  0.00000

  MBIS Charges: (a.u.)
   Center  Symbol  Z      Pop.       Charge
      1       O    8    8.317145   -0.317145
      2       H    1    0.682855    0.317145

  MBIS Dipoles: [e a0]
   Center  Symbol  Z        X           Y           Z
      1       O    8    0.000000   -0.000000   -0.114623
      2       H    1    0.000000    0.000000    0.054875

  MBIS Quadrupoles: [e a0^2]
   Center  Symbol  Z      XX        XY        XZ        YY        YZ        ZZ
      1       O    8   -3.7365    0.0000   -0.0000   -4.5937   -0.0000   -4.2195
      2       H    1   -0.4699   -0.0000    0.0000   -0.5112    0.0000   -0.4569

  MBIS Octupoles: [e a0^3]
   Center  Symbol  Z      XXX       XXY       XXZ       XYY       XYZ       XZZ       YYY       YYZ       YZZ       ZZZ
      1       O    8   -0.0000    0.0000   -0.1467   -0.0000    0.0000    0.0000   -0.0000   -0.1352    0.0000   -0.5738
      2       H    1    0.0000    0.0000    0.0040    0.0000   -0.0000    0.0000    0.0000    0.0372    0.0000    0.0700

  MBIS Radial Moments:
   Center  Symbol  Z      [a0^2]      [a0^3]      [a0^4]
      1       O    8   12.549744   24.306556   56.256983
      2       H    1    1.437945    2.987064    7.422549

  MBIS Valence Widths: [a0]
   Center  Symbol  Z     Width
      1       O    8    0.397505
      2       H    1    0.420725

*** tstop() called on Mac.lan at Sun Aug 10 17:11:42 2025
Module time:
	user time   =       2.69 seconds =       0.04 minutes
	system time =       2.38 seconds =       0.04 minutes
	total time  =          0 seconds =       0.00 minutes
Total time:
	user time   =      11.51 seconds =       0.19 minutes
	system time =       4.45 seconds =       0.07 minutes
	total time  =          1 seconds =       0.02 minutes

    Psi4 stopped on: Sunday, 10 August 2025 05:11PM
    Psi4 wall time for execution: 0:00:01.56

*** Psi4 exiting successfully. Buy a developer a beer!
