                               Psi4 1.9.1 release

  ==> Input File <==

--------------------------------------------------------------------------
molecule {
0 1
N           0.000000           0.000000           0.000000
N           0.000000           0.000000           0.955468
}

set {
basis              cc-pvtz
reference          uks
maxiter            500
DAMPING_PERCENTAGE 1
E_CONVERGENCE      1.0E-8
D_CONVERGENCE      1.0E-8
DIIS_MAX_VECS      400
MBIS_MAXITER       8000
guess              read
}

E, wfn = energy('b3lyp', restart_file='last_wfn', return_wfn=True)
properties('b3lyp','MBIS_CHARGES', wfn=wfn)
wfn.to_file('last_wfn')
--------------------------------------------------------------------------

    Molecular point group: d2h
  Charge       = 0
  Multiplicity = 1
  Basis Set: CC-PVTZ
    Blend: CC-PVTZ
  Basis Set: (CC-PVTZ AUX)
    Blend: CC-PVTZ-JKFIT
  @DF-UKS Final Energy:  -109.49496423286189
    Total Energy =                       -109.4949642328618893
 Dipole X            :          0.0000000            0.0000000            0.0000000
 Dipole Y            :          0.0000000            0.0000000            0.0000000
 Dipole Z            :          0.0000000            0.0000000            0.0000000
 Magnitude           :                                                    0.0000000
    Molecular point group: d2h

    Geometry (in Angstrom), charge = 0, multiplicity = 1:

       Center              X                  Y                   Z               Mass
    ------------   -----------------  -----------------  -----------------  -----------------
         N            0.000000000000     0.000000000000    -0.477734000000    14.003074004430
         N            0.000000000000     0.000000000000     0.477734000000    14.003074004430

  Charge       = 0
  Multiplicity = 1
  Basis Set: CC-PVTZ
    Blend: CC-PVTZ
  Basis Set: (CC-PVTZ AUX)
    Blend: CC-PVTZ-JKFIT

    Orbital Energies [Eh]
    ---------------------

    Alpha Occupied:

       1Ag   -14.378427     1B1u  -14.371800     2Ag    -1.208511
       1B3u   -0.521680     1B2u   -0.521680     2B1u   -0.515324
       3Ag    -0.441052

    Alpha Virtual:

       1B2g    0.046189     1B3g    0.046189     3B1u    0.305589
       2B2u    0.369753     2B3u    0.369753     4Ag     0.394726
       5Ag     0.499157     2B2g    0.556079     2B3g    0.556079
       4B1u    0.780402     6Ag     0.827300     1B1g    0.827300
       5B1u    1.070885     3B2u    1.189135     3B3u    1.189135
       6B1u    1.319675     1Au     1.319675     7Ag     1.640639
       3B3g    1.694788     3B2g    1.694788     7B1u    2.265581
       4B2u    2.706600     4B3u    2.706600     8Ag     3.026563
       4B3g    3.229244     4B2g    3.229244     8B1u    3.336131
       9Ag     3.516610     2B1g    3.516610     5B3u    3.527271
       5B2u    3.527271     6B2u    3.743524     6B3u    3.743524
      10Ag     4.102184     5B2g    4.200243     5B3g    4.200243
       6B3g    4.339619     6B2g    4.339619    11Ag     4.387576
       3B1g    4.387577     9B1u    4.487892     2Au     4.487893
      12Ag     4.898678    10B1u    4.978166     7B3u    5.210771
       7B2u    5.210771    11B1u    5.265032     3Au     5.265032
      12B1u    6.212580     7B2g    7.045298     7B3g    7.045298
      13Ag     7.582041    13B1u   21.329613

    Beta Occupied:

       1Ag   -14.378427     1B1u  -14.371800     2Ag    -1.208511
       1B3u   -0.521680     1B2u   -0.521680     2B1u   -0.515324
       3Ag    -0.441052

    Beta Virtual:

       1B2g    0.046189     1B3g    0.046189     3B1u    0.305589
       2B2u    0.369753     2B3u    0.369753     4Ag     0.394726
       5Ag     0.499157     2B2g    0.556079     2B3g    0.556079
       4B1u    0.780402     6Ag     0.827300     1B1g    0.827300
       5B1u    1.070885     3B2u    1.189135     3B3u    1.189135
       6B1u    1.319675     1Au     1.319675     7Ag     1.640639
       3B3g    1.694788     3B2g    1.694788     7B1u    2.265581
       4B2u    2.706600     4B3u    2.706600     8Ag     3.026563
       4B3g    3.229244     4B2g    3.229244     8B1u    3.336131
       9Ag     3.516610     2B1g    3.516610     5B3u    3.527271
       5B2u    3.527271     6B2u    3.743524     6B3u    3.743524
      10Ag     4.102184     5B2g    4.200243     5B3g    4.200243
       6B3g    4.339619     6B2g    4.339619    11Ag     4.387576
       3B1g    4.387577     9B1u    4.487892     2Au     4.487893
      12Ag     4.898678    10B1u    4.978166     7B3u    5.210771
       7B2u    5.210771    11B1u    5.265032     3Au     5.265032
      12B1u    6.212580     7B2g    7.045298     7B3g    7.045298
      13Ag     7.582041    13B1u   21.329613

    Final Occupation by Irrep:
             Ag   B1g   B2g   B3g    Au   B1u   B2u   B3u
    DOCC [     3,    0,    0,    0,    0,    2,    1,    1 ]
    SOCC [     0,    0,    0,    0,    0,    0,    0,    0 ]
    NA   [     3,    0,    0,    0,    0,    2,    1,    1 ]
    NB   [     3,    0,    0,    0,    0,    2,    1,    1 ]

  @DF-UKS Final Energy:  -109.49496423258802

   => Energetics <=

    Nuclear Repulsion Energy =             27.1382017219101108
    One-Electron Energy =                -201.2578493414939089
    Two-Electron Energy =                  75.8794143149724647
    DFT Exchange-Correlation Energy =     -11.2547309279766967
    Empirical Dispersion Energy =           0.0000000000000000
    VV10 Nonlocal Energy =                  0.0000000000000000
    Total Energy =                       -109.4949642325880177

  UHF NO Occupations:
  HONO-2 :    3 Ag 2.0000000
  HONO-1 :    1B1u 2.0000000
  HONO-0 :    2B1u 2.0000000
  LUNO+0 :    4 Ag 0.0000000
  LUNO+1 :    3B1u 0.0000000
  LUNO+2 :    4B1u 0.0000000
  LUNO+3 :    5B1u 0.0000000

Computation Completed

Properties will be evaluated at   0.000000,   0.000000,   0.000000 [a0]

Properties computed using the B3LYP density matrix

 Multipole Moments:

 ------------------------------------------------------------------------------------
     Multipole            Electronic (a.u.)      Nuclear  (a.u.)        Total (a.u.)
 ------------------------------------------------------------------------------------

 L = 1.  Multiply by 2.5417464519 to convert [e a0] to [Debye]
 Dipole X            :          0.0000000            0.0000000            0.0000000
 Dipole Y            :          0.0000000            0.0000000            0.0000000
 Dipole Z            :          0.0000000            0.0000000            0.0000000
 Magnitude           :                                                    0.0000000

 L = 2.  Multiply by 1.3450342976 to convert [e a0^2] to [Debye ang]
 Quadrupole XX       :         -7.1879421            0.0000000           -7.1879421
 Quadrupole XY       :          0.0000000            0.0000000            0.0000000
 Quadrupole XZ       :          0.0000000            0.0000000            0.0000000
 Quadrupole YY       :         -7.1879421            0.0000000           -7.1879421
 Quadrupole YZ       :          0.0000000            0.0000000            0.0000000
 Quadrupole ZZ       :        -20.0519513           11.4103265           -8.6416248
 Traceless XX        :          4.2880031           -3.8034422            0.4845609
 Traceless YY        :          4.2880031           -3.8034422            0.4845609
 Traceless ZZ        :         -8.5760061            7.6068843           -0.9691218

 ------------------------------------------------------------------------------------
  ==> Computing MBIS Charges <==

  Electron Count from Grid (Expected Number): 14.00000 (14.00000)
  Difference: -0.00000

  MBIS Charges: (a.u.)
   Center  Symbol  Z      Pop.       Charge
      1       N    7    7.000000    0.000000
      2       N    7    7.000000    0.000000

  MBIS Dipoles: [e a0]
   Center  Symbol  Z        X           Y           Z
      1       N    7    0.000000   -0.000000    0.095239
      2       N    7    0.000000    0.000000   -0.095239

  MBIS Quadrupoles: [e a0^2]
   Center  Symbol  Z      XX        XY        XZ        YY        YZ        ZZ
      1       N    7   -3.5940   -0.0000   -0.0000   -3.5940    0.0000   -4.1489
      2       N    7   -3.5940   -0.0000    0.0000   -3.5940    0.0000   -4.1489

  MBIS Octupoles: [e a0^3]
   Center  Symbol  Z      XXX       XXY       XXZ       XYY       XYZ       XZZ       YYY       YYZ       YZZ       ZZZ
      1       N    7    0.0000   -0.0000    0.1280    0.0000    0.0000    0.0000   -0.0000    0.1280   -0.0000    0.4127
      2       N    7   -0.0000    0.0000   -0.1280    0.0000   -0.0000    0.0000   -0.0000   -0.1280   -0.0000   -0.4127

  MBIS Radial Moments:
   Center  Symbol  Z      [a0^2]      [a0^3]      [a0^4]
      1       N    7   11.336794   23.005407   55.849355
      2       N    7   11.336794   23.005407   55.849355

  MBIS Valence Widths: [a0]
   Center  Symbol  Z     Width
      1       N    7    0.421299
      2       N    7    0.421299

*** tstop() called on Mac.lan at Sun Aug 10 17:05:50 2025
Module time:
	user time   =       4.27 seconds =       0.07 minutes
	system time =       1.74 seconds =       0.03 minutes
	total time  =          1 seconds =       0.02 minutes
Total time:
	user time   =      15.73 seconds =       0.26 minutes
	system time =       3.80 seconds =       0.06 minutes
	total time  =          2 seconds =       0.03 minutes

    Psi4 stopped on: Sunday, 10 August 2025 05:05PM
    Psi4 wall time for execution: 0:00:01.91

*** Psi4 exiting successfully. Buy a developer a beer!
