                               Psi4 1.9.1 release

  ==> Input File <==

--------------------------------------------------------------------------
molecule {
0 3
C           0.000000           0.000000           0.000000
C           0.000000           0.000000           1.354944
}

set {
basis              cc-pvtz
reference          uks
maxiter            500
DAMPING_PERCENTAGE 1
E_CONVERGENCE      1.0E-8
D_CONVERGENCE      1.0E-8
DIIS_MAX_VECS      400
MBIS_MAXITER       8000
guess              SAP
}

E, wfn = energy('b3lyp', return_wfn=True)
properties('b3lyp','MBIS_CHARGES', wfn=wfn)
wfn.to_file('last_wfn')
--------------------------------------------------------------------------

    Molecular point group: d2h
  Charge       = 0
  Multiplicity = 3
  Basis Set: CC-PVTZ
    Blend: CC-PVTZ
  Basis Set: (CC-PVTZ AUX)
    Blend: CC-PVTZ-JKFIT
  @DF-UKS Final Energy:   -75.94114881706241
    Total Energy =                        -75.9411488170624267
 Dipole X            :          0.0000000            0.0000000            0.0000000
 Dipole Y            :          0.0000000            0.0000000            0.0000000
 Dipole Z            :          0.0000000            0.0000000            0.0000000
 Magnitude           :                                                    0.0000000
    Molecular point group: d2h

    Geometry (in Angstrom), charge = 0, multiplicity = 3:

       Center              X                  Y                   Z               Mass
    ------------   -----------------  -----------------  -----------------  -----------------
         C            0.000000000000     0.000000000000    -0.677472000000    12.000000000000
         C            0.000000000000     0.000000000000     0.677472000000    12.000000000000

  Charge       = 0
  Multiplicity = 3
  Basis Set: CC-PVTZ
    Blend: CC-PVTZ
  Basis Set: (CC-PVTZ AUX)
    Blend: CC-PVTZ-JKFIT

    Orbital Energies [Eh]
    ---------------------

    Alpha Occupied:

       1Ag   -10.300643     1B1u  -10.299760     2Ag    -0.813926
       2B1u   -0.463273     1B3u   -0.364008     3Ag    -0.358742
       1B2u   -0.329821

    Alpha Virtual:

       1B2g   -0.064690     1B3g   -0.037281     3B1u    0.174691
       2B3u    0.258784     4Ag     0.270678     2B2u    0.273945
       5Ag     0.322656     2B2g    0.352850     2B3g    0.366356
       4B1u    0.427231     1B1g    0.546182     6Ag     0.546874
       5B1u    0.601539     3B3u    0.690475     3B2u    0.714334
       1Au     0.828989     6B1u    0.829402     3B2g    1.107138
       3B3g    1.122939     7Ag     1.136211     7B1u    1.236916
       4B3u    1.883824     4B2u    1.909197     8Ag     1.988145
       4B2g    2.094322     4B3g    2.121995     8B1u    2.360739
       2B1g    2.370611     9Ag     2.371327     5B3u    2.390646
       5B2u    2.419579     6B3u    2.495932     6B2u    2.496084
      10Ag     2.630498     5B2g    2.797731     5B3g    2.797839
       3B1g    2.885519    11Ag     2.885910     9B1u    2.976226
       2Au     2.976515     6B2g    3.000644     6B3g    3.020877
      10B1u    3.102265     7B3u    3.315713     7B2u    3.340815
       3Au     3.341318    11B1u    3.342262    12Ag     3.684186
      12B1u    3.767290     7B2g    4.304633    13Ag     4.320083
       7B3g    4.332006    13B1u   10.261098

    Beta Occupied:

       1Ag   -10.284519     1B1u  -10.283909     2Ag    -0.746900
       2B1u   -0.375093     1B2u   -0.311665

    Beta Virtual:

       1B3u   -0.217329     3Ag    -0.208733     1B3g   -0.015606
       1B2g    0.010477     3B1u    0.187972     2B2u    0.279814
       2B3u    0.289606     4Ag     0.293709     5Ag     0.357217
       2B3g    0.373621     2B2g    0.383160     4B1u    0.493690
       1B1g    0.573735     6Ag     0.576273     5B1u    0.619533
       3B2u    0.742138     3B3u    0.747577     1Au     0.853115
       6B1u    0.855101     3B3g    1.144155     3B2g    1.146974
       7Ag     1.176948     7B1u    1.278651     4B2u    1.922240
       4B3u    1.935415     8Ag     2.036385     4B3g    2.134187
       4B2g    2.144240     8B1u    2.409164     2B1g    2.411768
       9Ag     2.414375     5B2u    2.451634     5B3u    2.463980
       6B2u    2.529894     6B3u    2.530802    10Ag     2.701260
       5B3g    2.831020     5B2g    2.831941     3B1g    2.930337
      11Ag     2.934953     2Au     3.018234     9B1u    3.022838
       6B3g    3.068807     6B2g    3.078492    10B1u    3.159753
       3Au     3.383474     7B2u    3.384849    11B1u    3.386164
       7B3u    3.392117    12Ag     3.726598    12B1u    3.827656
       7B3g    4.361981    13Ag     4.363921     7B2g    4.371235
      13B1u   10.288964

    Final Occupation by Irrep:
             Ag   B1g   B2g   B3g    Au   B1u   B2u   B3u
    DOCC [     2,    0,    0,    0,    0,    2,    1,    0 ]
    SOCC [     1,    0,    0,    0,    0,    0,    0,    1 ]
    NA   [     3,    0,    0,    0,    0,    2,    1,    1 ]
    NB   [     2,    0,    0,    0,    0,    2,    1,    0 ]

  @DF-UKS Final Energy:   -75.94114881706241

   => Energetics <=

    Nuclear Repulsion Energy =             14.0599017997201337
    One-Electron Energy =                -128.9154375240567845
    Two-Electron Energy =                  47.4480831588101140
    DFT Exchange-Correlation Energy =      -8.5336962515358898
    Empirical Dispersion Energy =           0.0000000000000000
    VV10 Nonlocal Energy =                  0.0000000000000000
    Total Energy =                        -75.9411488170624267

  UHF NO Occupations:
  HONO-2 :    2B1u 1.9984020
  HONO-1 :    1B3u 1.0000000
  HONO-0 :    3 Ag 1.0000000
  LUNO+0 :    3B1u 0.0015980
  LUNO+1 :    4 Ag 0.0003802
  LUNO+2 :    2B2u 0.0001595
  LUNO+3 :    4B1u 0.0000006

Computation Completed

Properties will be evaluated at   0.000000,   0.000000,   0.000000 [a0]

Properties computed using the B3LYP density matrix

 Multipole Moments:

 ------------------------------------------------------------------------------------
     Multipole            Electronic (a.u.)      Nuclear  (a.u.)        Total (a.u.)
 ------------------------------------------------------------------------------------

 L = 1.  Multiply by 2.5417464519 to convert [e a0] to [Debye]
 Dipole X            :          0.0000000            0.0000000            0.0000000
 Dipole Y            :          0.0000000            0.0000000            0.0000000
 Dipole Z            :          0.0000000            0.0000000            0.0000000
 Magnitude           :                                                    0.0000000

 L = 2.  Multiply by 1.3450342976 to convert [e a0^2] to [Debye ang]
 Quadrupole XX       :         -7.9737591            0.0000000           -7.9737591
 Quadrupole XY       :          0.0000000            0.0000000            0.0000000
 Quadrupole XZ       :          0.0000000            0.0000000            0.0000000
 Quadrupole YY       :         -9.4534100            0.0000000           -9.4534100
 Quadrupole YZ       :          0.0000000            0.0000000            0.0000000
 Quadrupole ZZ       :        -28.7612658           19.6680671           -9.0931986
 Traceless XX        :          7.4223858           -6.5560224            0.8663635
 Traceless YY        :          5.9427349           -6.5560224           -0.6132874
 Traceless ZZ        :        -13.3651208           13.1120447           -0.2530760

 ------------------------------------------------------------------------------------
  ==> Computing MBIS Charges <==

  Electron Count from Grid (Expected Number): 12.00000 (12.00000)
  Difference:  0.00000

  MBIS Charges: (a.u.)
   Center  Symbol  Z      Pop.       Charge
      1       C    6    6.000000   -0.000000
      2       C    6    6.000000   -0.000000

  MBIS Dipoles: [e a0]
   Center  Symbol  Z        X           Y           Z
      1       C    6   -0.000000    0.000000   -0.069619
      2       C    6   -0.000000    0.000000    0.069619

  MBIS Quadrupoles: [e a0^2]
   Center  Symbol  Z      XX        XY        XZ        YY        YZ        ZZ
      1       C    6   -3.9869    0.0000   -0.0000   -4.7267   -0.0000   -4.7249
      2       C    6   -3.9869    0.0000    0.0000   -4.7267    0.0000   -4.7249

  MBIS Octupoles: [e a0^3]
   Center  Symbol  Z      XXX       XXY       XXZ       XYY       XYZ       XZZ       YYY       YYZ       YZZ       ZZZ
      1       C    6   -0.0000    0.0000    0.0075    0.0000   -0.0000   -0.0000    0.0000   -0.2252    0.0000   -0.2375
      2       C    6   -0.0000    0.0000   -0.0075    0.0000    0.0000   -0.0000    0.0000    0.2252    0.0000    0.2375

  MBIS Radial Moments:
   Center  Symbol  Z      [a0^2]      [a0^3]      [a0^4]
      1       C    6   13.438440   32.687271   94.859432
      2       C    6   13.438440   32.687271   94.859432

  MBIS Valence Widths: [a0]
   Center  Symbol  Z     Width
      1       C    6    0.513012
      2       C    6    0.513012

*** tstop() called on Mac.lan at Sun Aug 10 17:04:05 2025
Module time:
	user time   =      13.35 seconds =       0.22 minutes
	system time =       2.31 seconds =       0.04 minutes
	total time  =          1 seconds =       0.02 minutes
Total time:
	user time   =      26.42 seconds =       0.44 minutes
	system time =       4.79 seconds =       0.08 minutes
	total time  =          3 seconds =       0.05 minutes

    Psi4 stopped on: Sunday, 10 August 2025 05:04PM
    Psi4 wall time for execution: 0:00:02.99

*** Psi4 exiting successfully. Buy a developer a beer!
