                               Psi4 1.9.1 release

  ==> Input File <==

--------------------------------------------------------------------------
molecule {
0 2
N           0.000000           0.000000           0.000000
C           0.000000           0.000000           1.060743
}

set {
basis              cc-pvtz
reference          uks
maxiter            500
DAMPING_PERCENTAGE 1
E_CONVERGENCE      1.0E-8
D_CONVERGENCE      1.0E-8
DIIS_MAX_VECS      400
MBIS_MAXITER       8000
guess              read
}

E, wfn = energy('b3lyp', restart_file='last_wfn', return_wfn=True)
properties('b3lyp','MBIS_CHARGES', wfn=wfn)
wfn.to_file('last_wfn')
--------------------------------------------------------------------------

    Molecular point group: c2v
  Charge       = 0
  Multiplicity = 2
  Basis Set: CC-PVTZ
    Blend: CC-PVTZ
  Basis Set: (CC-PVTZ AUX)
    Blend: CC-PVTZ-JKFIT
  @DF-UKS Final Energy:   -92.71909166844341
    Total Energy =                        -92.7190916684434114
 Dipole X            :          0.0000000            0.0000000            0.0000000
 Dipole Y            :          0.0000000            0.0000000            0.0000000
 Dipole Z            :          0.5965148            0.0014218            0.5979366
 Magnitude           :                                                    0.5979366
    Molecular point group: c2v

    Geometry (in Angstrom), charge = 0, multiplicity = 2:

       Center              X                  Y                   Z               Mass
    ------------   -----------------  -----------------  -----------------  -----------------
         N            0.000000000000     0.000000000000    -0.489515816393    14.003074004430
         C            0.000000000000     0.000000000000     0.571227183607    12.000000000000

  Charge       = 0
  Multiplicity = 2
  Basis Set: CC-PVTZ
    Blend: CC-PVTZ
  Basis Set: (CC-PVTZ AUX)
    Blend: CC-PVTZ-JKFIT

    Orbital Energies [Eh]
    ---------------------

    Alpha Occupied:

       1A1   -14.354591     2A1   -10.266064     3A1    -1.000190
       4A1    -0.483461     1B2    -0.419265     1B1    -0.419265
       5A1    -0.408361

    Alpha Virtual:

       2B2     0.022833     2B1     0.022833     6A1     0.169301
       7A1     0.259027     3B2     0.277199     3B1     0.277199
       8A1     0.443292     4B1     0.522045     4B2     0.522045
       9A1     0.617006     1A2     0.617006    10A1     0.705296
       5B2     0.860666     5B1     0.860666    11A1     0.912114
      12A1     1.190514     2A2     1.190514    13A1     1.401684
       6B2     1.547469     6B1     1.547469    14A1     1.820143
       7B2     1.930172     7B1     1.930172    15A1     2.252081
       8B1     2.608551     8B2     2.608551    16A1     2.735382
      17A1     2.751783     3A2     2.751783     9B2     2.826059
       9B1     2.826059    18A1     2.913713     4A2     2.913713
      10B2     2.992392    10B1     2.992392    19A1     3.164188
      11B2     3.466464    11B1     3.466464    12B2     3.965393
      12B1     3.965393    20A1     4.171128     5A2     4.490365
      21A1     4.490367    22A1     4.653503     6A2     4.653503
      13B2     4.862338    13B1     4.862338    23A1     5.140211
      24A1     5.416618    14B2     5.815018    14B1     5.815018
      25A1     6.601244    26A1    14.267620

    Beta Occupied:

       1A1   -14.351074     2A1   -10.248867     3A1    -0.979153
       4A1    -0.417370     1B2    -0.409686     1B1    -0.409686

    Beta Virtual:

       5A1    -0.249595     2B2     0.045762     2B1     0.045762
       6A1     0.176305     3B2     0.288049     3B1     0.288049
       7A1     0.301584     8A1     0.454593     4B1     0.525108
       4B2     0.525108     9A1     0.628697     1A2     0.628697
      10A1     0.750820     5B2     0.890809     5B1     0.890809
      11A1     0.920798     2A2     1.193216    12A1     1.193216
      13A1     1.444042     6B2     1.560871     6B1     1.560871
      14A1     1.844931     7B2     1.947313     7B1     1.947313
      15A1     2.303658     8B1     2.626817     8B2     2.626817
      16A1     2.763180     3A2     2.763180    17A1     2.774275
       9B2     2.891124     9B1     2.891124    18A1     2.965956
       4A2     2.965956    10B2     3.009297    10B1     3.009297
      19A1     3.250070    11B2     3.500078    11B1     3.500078
      12B2     3.961353    12B1     3.961353    20A1     4.200607
       5A2     4.484774    21A1     4.484777    22A1     4.664119
       6A2     4.664119    13B2     4.879271    13B1     4.879271
      23A1     5.170162    24A1     5.444042    14B2     5.841556
      14B1     5.841556    25A1     6.614923    26A1    14.291070

    Final Occupation by Irrep:
             A1    A2    B1    B2
    DOCC [     4,    0,    1,    1 ]
    SOCC [     1,    0,    0,    0 ]
    NA   [     5,    0,    1,    1 ]
    NB   [     4,    0,    1,    1 ]

  @DF-UKS Final Energy:   -92.71909166771778

   => Energetics <=

    Nuclear Repulsion Energy =             20.9527122480563150
    One-Electron Energy =                -166.0243386564187631
    Two-Electron Energy =                  62.2890141411851488
    DFT Exchange-Correlation Energy =      -9.9364794005404811
    Empirical Dispersion Energy =           0.0000000000000000
    VV10 Nonlocal Energy =                  0.0000000000000000
    Total Energy =                        -92.7190916677177768

  UHF NO Occupations:
  HONO-2 :    1 B2 1.9987115
  HONO-1 :    1 B1 1.9987115
  HONO-0 :    5 A1 1.0000000
  LUNO+0 :    2 B1 0.0012885
  LUNO+1 :    2 B2 0.0012885
  LUNO+2 :    6 A1 0.0007693
  LUNO+3 :    7 A1 0.0000688

Computation Completed

Properties will be evaluated at   0.000000,   0.000000,   0.000000 [a0]

Properties computed using the B3LYP density matrix

 Multipole Moments:

 ------------------------------------------------------------------------------------
     Multipole            Electronic (a.u.)      Nuclear  (a.u.)        Total (a.u.)
 ------------------------------------------------------------------------------------

 L = 1.  Multiply by 2.5417464519 to convert [e a0] to [Debye]
 Dipole X            :          0.0000000            0.0000000            0.0000000
 Dipole Y            :          0.0000000            0.0000000            0.0000000
 Dipole Z            :          0.5965148            0.0014218            0.5979367
 Magnitude           :                                                    0.5979367

 L = 2.  Multiply by 1.3450342976 to convert [e a0^2] to [Debye ang]
 Quadrupole XX       :         -7.8488222            0.0000000           -7.8488222
 Quadrupole XY       :          0.0000000            0.0000000            0.0000000
 Quadrupole XZ       :          0.0000000            0.0000000            0.0000000
 Quadrupole YY       :         -7.8488222            0.0000000           -7.8488222
 Quadrupole YZ       :          0.0000000            0.0000000            0.0000000
 Quadrupole ZZ       :        -20.7560845           12.9814746           -7.7746099
 Traceless XX        :          4.3024208           -4.3271582           -0.0247374
 Traceless YY        :          4.3024208           -4.3271582           -0.0247374
 Traceless ZZ        :         -8.6048416            8.6543164            0.0494748

 ------------------------------------------------------------------------------------
  ==> Computing MBIS Charges <==

  Electron Count from Grid (Expected Number): 13.00000 (13.00000)
  Difference: -0.00000

  MBIS Charges: (a.u.)
   Center  Symbol  Z      Pop.       Charge
      1       N    7    7.307029   -0.307029
      2       C    6    5.692971    0.307029

  MBIS Dipoles: [e a0]
   Center  Symbol  Z        X           Y           Z
      1       N    7   -0.000000   -0.000000   -0.144466
      2       C    6   -0.000000   -0.000000    0.126959

  MBIS Quadrupoles: [e a0^2]
   Center  Symbol  Z      XX        XY        XZ        YY        YZ        ZZ
      1       N    7   -4.1849    0.0000   -0.0000   -4.1849   -0.0000   -4.5640
      2       C    6   -3.6639    0.0000   -0.0000   -3.6639    0.0000   -3.8470

  MBIS Octupoles: [e a0^3]
   Center  Symbol  Z      XXX       XXY       XXZ       XYY       XYZ       XZZ       YYY       YYZ       YZZ       ZZZ
      1       N    7   -0.0000   -0.0000   -0.1557   -0.0000    0.0000   -0.0000   -0.0000   -0.1557    0.0000   -0.1433
      2       C    6   -0.0000   -0.0000    0.0416   -0.0000    0.0000   -0.0000   -0.0000    0.0416    0.0000    0.0121

  MBIS Radial Moments:
   Center  Symbol  Z      [a0^2]      [a0^3]      [a0^4]
      1       N    7   12.933802   27.283854   68.865808
      2       C    6   11.174857   25.786350   71.238268

  MBIS Valence Widths: [a0]
   Center  Symbol  Z     Width
      1       N    7    0.438725
      2       C    6    0.482945

*** tstop() called on Mac.lan at Sun Aug 10 17:12:54 2025
Module time:
	user time   =       4.16 seconds =       0.07 minutes
	system time =       1.88 seconds =       0.03 minutes
	total time  =          1 seconds =       0.02 minutes
Total time:
	user time   =      21.03 seconds =       0.35 minutes
	system time =       4.06 seconds =       0.07 minutes
	total time  =          3 seconds =       0.05 minutes

    Psi4 stopped on: Sunday, 10 August 2025 05:12PM
    Psi4 wall time for execution: 0:00:02.43

*** Psi4 exiting successfully. Buy a developer a beer!
