                               Psi4 1.9.1 release

  ==> Input File <==

--------------------------------------------------------------------------
molecule {
0 2
O           0.000000           0.000000           0.000000
N           0.000000           0.000000           0.982245
}

set {
basis              cc-pvtz
reference          uks
maxiter            500
DAMPING_PERCENTAGE 1
E_CONVERGENCE      1.0E-8
D_CONVERGENCE      1.0E-8
DIIS_MAX_VECS      400
MBIS_MAXITER       8000
guess              read
}

E, wfn = energy('b3lyp', restart_file='last_wfn', return_wfn=True)
properties('b3lyp','MBIS_CHARGES', wfn=wfn)
wfn.to_file('last_wfn')
--------------------------------------------------------------------------

    Molecular point group: c2v
  Charge       = 0
  Multiplicity = 2
  Basis Set: CC-PVTZ
    Blend: CC-PVTZ
  Basis Set: (CC-PVTZ AUX)
    Blend: CC-PVTZ-JKFIT
  @DF-UKS Final Energy:  -129.86011621343209
    Total Energy =                       -129.8601162134320930
 Dipole X            :          0.0000000            0.0000000            0.0000000
 Dipole Y            :          0.0000000            0.0000000            0.0000000
 Dipole Z            :         -0.2106187           -0.0037243           -0.2143430
 Magnitude           :                                                    0.2143430
    Molecular point group: c2v

    Geometry (in Angstrom), charge = 0, multiplicity = 2:

       Center              X                  Y                   Z               Mass
    ------------   -----------------  -----------------  -----------------  -----------------
         O            0.000000000000     0.000000000000    -0.458512388877    15.994914619570
         N            0.000000000000     0.000000000000     0.523732611123    14.003074004430

  Charge       = 0
  Multiplicity = 2
  Basis Set: CC-PVTZ
    Blend: CC-PVTZ
  Basis Set: (CC-PVTZ AUX)
    Blend: CC-PVTZ-JKFIT

    Orbital Energies [Eh]
    ---------------------

    Alpha Occupied:

       1A1   -19.258711     2A1   -14.412169     3A1    -1.389351
       4A1    -0.666982     1B1    -0.615288     1B2    -0.592967
       5A1    -0.496936     2B1    -0.140137

    Alpha Virtual:

       2B2    -0.031338     6A1     0.242232     3B1     0.393824
       3B2     0.397503     7A1     0.434730     8A1     0.527274
       4B1     0.597152     4B2     0.607631     9A1     0.852947
       1A2     0.905706    10A1     0.907460    11A1     1.181371
       5B1     1.223913     5B2     1.226225     2A2     1.570511
      12A1     1.571910    13A1     1.835720     6B1     2.057065
       6B2     2.060544    14A1     2.326018     7B1     2.789215
       7B2     2.801824    15A1     3.142287    16A1     3.680158
       8B1     3.688275     8B2     3.696332     9B1     3.747717
       9B2     3.748189     3A2     3.826447    17A1     3.828125
      10B1     4.116190    10B2     4.117769     4A2     4.369239
      18A1     4.373845    19A1     4.569257    11B2     4.797864
      11B1     4.797975    12B1     5.087784    12B2     5.087919
      20A1     5.344369     5A2     5.906759    21A1     5.908090
       6A2     6.150694    22A1     6.152719    13B1     6.547852
      13B2     6.549796    23A1     6.670918    24A1     7.161496
      14B2     7.574217    14B1     7.574299    25A1     8.086537
      26A1    18.301786

    Beta Occupied:

       1A1   -19.247651     2A1   -14.398356     3A1    -1.371507
       4A1    -0.635268     1B2    -0.583302     1B1    -0.546027
       5A1    -0.467105

    Beta Virtual:

       2B2    -0.016981     2B1     0.022188     6A1     0.246506
       3B2     0.402077     3B1     0.423155     7A1     0.446212
       8A1     0.536931     4B2     0.612894     4B1     0.632025
       9A1     0.874025     1A2     0.929543    10A1     0.930289
      11A1     1.190332     5B2     1.229367     5B1     1.258038
       2A2     1.597052    12A1     1.597154    13A1     1.849251
       6B2     2.064439     6B1     2.087678    14A1     2.341702
       7B2     2.812832     7B1     2.850390    15A1     3.157470
      16A1     3.696346     8B2     3.704160     8B1     3.736339
       9B2     3.786095     9B1     3.786246     3A2     3.846732
      17A1     3.847361    10B2     4.122016    10B1     4.155152
      18A1     4.424776     4A2     4.426293    19A1     4.588666
      11B2     4.801714    11B1     4.832762    12B2     5.114684
      12B1     5.114697    20A1     5.360061     5A2     5.930420
      21A1     5.930649     6A2     6.188916    22A1     6.188975
      13B2     6.553768    13B1     6.583114    23A1     6.681463
      24A1     7.176292    14B2     7.579013    14B1     7.610757
      25A1     8.105621    26A1    18.318946

    Final Occupation by Irrep:
             A1    A2    B1    B2
    DOCC [     5,    0,    1,    1 ]
    SOCC [     0,    0,    1,    0 ]
    NA   [     5,    0,    2,    1 ]
    NB   [     5,    0,    1,    1 ]

  @DF-UKS Final Energy:  -129.86011621227692

   => Energetics <=

    Nuclear Repulsion Energy =             30.1695847752037416
    One-Electron Energy =                -236.1927800822626864
    Two-Electron Energy =                  88.7553159750692089
    DFT Exchange-Correlation Energy =     -12.5922368802871656
    Empirical Dispersion Energy =           0.0000000000000000
    VV10 Nonlocal Energy =                  0.0000000000000000
    Total Energy =                       -129.8601162122769210

  UHF NO Occupations:
  HONO-2 :    5 A1 1.9996197
  HONO-1 :    1 B1 1.9994966
  HONO-0 :    2 B1 1.0000000
  LUNO+0 :    3 B1 0.0005034
  LUNO+1 :    6 A1 0.0003803
  LUNO+2 :    7 A1 0.0000960
  LUNO+3 :    2 B2 0.0000335

Computation Completed

Properties will be evaluated at   0.000000,   0.000000,   0.000000 [a0]

Properties computed using the B3LYP density matrix

 Multipole Moments:

 ------------------------------------------------------------------------------------
     Multipole            Electronic (a.u.)      Nuclear  (a.u.)        Total (a.u.)
 ------------------------------------------------------------------------------------

 L = 1.  Multiply by 2.5417464519 to convert [e a0] to [Debye]
 Dipole X            :          0.0000000            0.0000000            0.0000000
 Dipole Y            :          0.0000000            0.0000000            0.0000000
 Dipole Z            :         -0.2106186           -0.0037243           -0.2143430
 Magnitude           :                                                    0.2143430

 L = 2.  Multiply by 1.3450342976 to convert [e a0^2] to [Debye ang]
 Quadrupole XX       :         -7.7197699            0.0000000           -7.7197699
 Quadrupole XY       :          0.0000000            0.0000000            0.0000000
 Quadrupole XZ       :          0.0000000            0.0000000            0.0000000
 Quadrupole YY       :         -6.8040893            0.0000000           -6.8040893
 Quadrupole YZ       :          0.0000000            0.0000000            0.0000000
 Quadrupole ZZ       :        -21.3541609           12.8627606           -8.4914003
 Traceless XX        :          4.2395701           -4.2875869           -0.0480167
 Traceless YY        :          5.1552508           -4.2875869            0.8676639
 Traceless ZZ        :         -9.3948209            8.5751737           -0.8196472

 ------------------------------------------------------------------------------------
  ==> Computing MBIS Charges <==

  Electron Count from Grid (Expected Number): 15.00000 (15.00000)
  Difference: -0.00000

  MBIS Charges: (a.u.)
   Center  Symbol  Z      Pop.       Charge
      1       O    8    7.947440    0.052560
      2       N    7    7.052560   -0.052560

  MBIS Dipoles: [e a0]
   Center  Symbol  Z        X           Y           Z
      1       O    8    0.000000    0.000000    0.091523
      2       N    7    0.000000   -0.000000   -0.208306

  MBIS Quadrupoles: [e a0^2]
   Center  Symbol  Z      XX        XY        XZ        YY        YZ        ZZ
      1       O    8   -3.4734   -0.0000   -0.0000   -3.2011   -0.0000   -3.6254
      2       N    7   -4.2464    0.0000    0.0000   -3.6030    0.0000   -4.2830

  MBIS Octupoles: [e a0^3]
   Center  Symbol  Z      XXX       XXY       XXZ       XYY       XYZ       XZZ       YYY       YYZ       YZZ       ZZZ
      1       O    8    0.0000    0.0000    0.1847    0.0000    0.0000    0.0000   -0.0000    0.1202   -0.0000    0.1567
      2       N    7    0.0000   -0.0000   -0.5005   -0.0000    0.0000    0.0000   -0.0000   -0.1587   -0.0000   -0.2119

  MBIS Radial Moments:
   Center  Symbol  Z      [a0^2]      [a0^3]      [a0^4]
      1       O    8   10.299943   18.530201   40.144734
      2       N    7   12.132365   25.532844   64.270429

  MBIS Valence Widths: [a0]
   Center  Symbol  Z     Width
      1       O    8    0.369121
      2       N    7    0.433969

*** tstop() called on Mac.lan at Sun Aug 10 17:19:55 2025
Module time:
	user time   =       3.47 seconds =       0.06 minutes
	system time =       2.20 seconds =       0.04 minutes
	total time  =          1 seconds =       0.02 minutes
Total time:
	user time   =      16.27 seconds =       0.27 minutes
	system time =       4.31 seconds =       0.07 minutes
	total time  =          2 seconds =       0.03 minutes

    Psi4 stopped on: Sunday, 10 August 2025 05:19PM
    Psi4 wall time for execution: 0:00:02.00

*** Psi4 exiting successfully. Buy a developer a beer!
