                               Psi4 1.9.1 release

  ==> Input File <==

--------------------------------------------------------------------------
molecule {
0 1
O           0.000000           0.000000           0.000000
C           0.000000           0.000000           1.358251
}

set {
basis              cc-pvtz
reference          uks
maxiter            500
DAMPING_PERCENTAGE 1
E_CONVERGENCE      1.0E-8
D_CONVERGENCE      1.0E-8
DIIS_MAX_VECS      400
MBIS_MAXITER       8000
guess              read
}

E, wfn = energy('b3lyp', restart_file='last_wfn', return_wfn=True)
properties('b3lyp','MBIS_CHARGES', wfn=wfn)
wfn.to_file('last_wfn')
--------------------------------------------------------------------------

    Molecular point group: c2v
  Charge       = 0
  Multiplicity = 1
  Basis Set: CC-PVTZ
    Blend: CC-PVTZ
  Basis Set: (CC-PVTZ AUX)
    Blend: CC-PVTZ-JKFIT
  @DF-UKS Final Energy:  -113.28357504533817
    Total Energy =                       -113.2835750453381678
 Dipole X            :          0.0000000            0.0000000            0.0000000
 Dipole Y            :          0.0000000            0.0000000            0.0000000
 Dipole Z            :          0.2763408           -0.0027975            0.2735433
 Magnitude           :                                                    0.2735433
    Molecular point group: c2v

    Geometry (in Angstrom), charge = 0, multiplicity = 1:

       Center              X                  Y                   Z               Mass
    ------------   -----------------  -----------------  -----------------  -----------------
         O            0.000000000000     0.000000000000    -0.582213313435    15.994914619570
         C            0.000000000000     0.000000000000     0.776037686565    12.000000000000

  Charge       = 0
  Multiplicity = 1
  Basis Set: CC-PVTZ
    Blend: CC-PVTZ
  Basis Set: (CC-PVTZ AUX)
    Blend: CC-PVTZ-JKFIT

    Orbital Energies [Eh]
    ---------------------

    Alpha Occupied:

       1A1   -19.240950     2A1   -10.364742     3A1    -1.054841
       4A1    -0.584054     1B2    -0.415106     1B1    -0.415106
       5A1    -0.396126

    Alpha Virtual:

       2B2    -0.106939     2B1    -0.106939     6A1     0.133346
       3B1     0.287677     3B2     0.287677     7A1     0.303451
       8A1     0.350285     9A1     0.539739     4B2     0.616808
       4B1     0.616808     1A2     0.632732    10A1     0.632732
       5B2     0.778436     5B1     0.778436    11A1     1.060945
      12A1     1.184335    13A1     1.466862     2A2     1.466863
       6B2     1.725026     6B1     1.725026     7B1     1.988239
       7B2     1.988239    14A1     2.017794    15A1     2.158679
       8B2     2.621090     8B1     2.621090     3A2     2.698305
      16A1     2.698305     9B1     2.873665     9B2     2.873665
       4A2     2.895284    17A1     2.895286    18A1     3.036030
      10B2     3.124960    10B1     3.124960    19A1     3.177346
      11B1     3.815229    11B2     3.815229    20A1     3.836101
      12B1     5.073575    12B2     5.073575    21A1     5.238324
       5A2     5.238326    22A1     5.372815    13B1     5.686121
      13B2     5.686121     6A2     6.184940    23A1     6.184943
      24A1     6.224509    14B2     6.630806    14B1     6.630806
      25A1     7.146130    26A1     9.298012

    Beta Occupied:

       1A1   -19.240950     2A1   -10.364742     3A1    -1.054841
       4A1    -0.584054     1B2    -0.415106     1B1    -0.415106
       5A1    -0.396126

    Beta Virtual:

       2B2    -0.106939     2B1    -0.106939     6A1     0.133346
       3B1     0.287677     3B2     0.287677     7A1     0.303451
       8A1     0.350285     9A1     0.539739     4B2     0.616808
       4B1     0.616808     1A2     0.632732    10A1     0.632732
       5B2     0.778436     5B1     0.778436    11A1     1.060945
      12A1     1.184335    13A1     1.466862     2A2     1.466863
       6B2     1.725026     6B1     1.725026     7B1     1.988239
       7B2     1.988239    14A1     2.017794    15A1     2.158679
       8B2     2.621090     8B1     2.621090     3A2     2.698305
      16A1     2.698305     9B1     2.873665     9B2     2.873665
       4A2     2.895284    17A1     2.895286    18A1     3.036030
      10B2     3.124960    10B1     3.124960    19A1     3.177346
      11B1     3.815229    11B2     3.815229    20A1     3.836101
      12B1     5.073575    12B2     5.073575    21A1     5.238324
       5A2     5.238326    22A1     5.372815    13B1     5.686121
      13B2     5.686121     6A2     6.184940    23A1     6.184943
      24A1     6.224509    14B2     6.630806    14B1     6.630806
      25A1     7.146130    26A1     9.298012

    Final Occupation by Irrep:
             A1    A2    B1    B2
    DOCC [     5,    0,    1,    1 ]
    SOCC [     0,    0,    0,    0 ]
    NA   [     5,    0,    1,    1 ]
    NB   [     5,    0,    1,    1 ]

  @DF-UKS Final Energy:  -113.28357503817924

   => Energetics <=

    Nuclear Repulsion Energy =             18.7008926274745981
    One-Electron Energy =                -191.0491681514633910
    Two-Electron Energy =                  70.1490611143304506
    DFT Exchange-Correlation Energy =     -11.0843606285208818
    Empirical Dispersion Energy =           0.0000000000000000
    VV10 Nonlocal Energy =                  0.0000000000000000
    Total Energy =                       -113.2835750381792366

  UHF NO Occupations:
  HONO-2 :    1 B2 2.0000000
  HONO-1 :    1 B1 2.0000000
  HONO-0 :    5 A1 2.0000000
  LUNO+0 :    6 A1 0.0000000
  LUNO+1 :    7 A1 0.0000000
  LUNO+2 :    8 A1 0.0000000
  LUNO+3 :    9 A1 0.0000000

Computation Completed

Properties will be evaluated at   0.000000,   0.000000,   0.000000 [a0]

Properties computed using the B3LYP density matrix

 Multipole Moments:

 ------------------------------------------------------------------------------------
     Multipole            Electronic (a.u.)      Nuclear  (a.u.)        Total (a.u.)
 ------------------------------------------------------------------------------------

 L = 1.  Multiply by 2.5417464519 to convert [e a0] to [Debye]
 Dipole X            :          0.0000000            0.0000000            0.0000000
 Dipole Y            :          0.0000000            0.0000000            0.0000000
 Dipole Z            :          0.2763408           -0.0027975            0.2735433
 Magnitude           :                                                    0.2735433

 L = 2.  Multiply by 1.3450342976 to convert [e a0^2] to [Debye ang]
 Quadrupole XX       :         -7.9148241            0.0000000           -7.9148241
 Quadrupole XY       :          0.0000000            0.0000000            0.0000000
 Quadrupole XZ       :          0.0000000            0.0000000            0.0000000
 Quadrupole YY       :         -7.9148241            0.0000000           -7.9148241
 Quadrupole YZ       :          0.0000000            0.0000000            0.0000000
 Quadrupole ZZ       :        -31.5242461           22.5876481           -8.9365979
 Traceless XX        :          7.8698073           -7.5292160            0.3405913
 Traceless YY        :          7.8698073           -7.5292160            0.3405913
 Traceless ZZ        :        -15.7396146           15.0584321           -0.6811825

 ------------------------------------------------------------------------------------
  ==> Computing MBIS Charges <==

  Electron Count from Grid (Expected Number): 14.00000 (14.00000)
  Difference: -0.00000

  MBIS Charges: (a.u.)
   Center  Symbol  Z      Pop.       Charge
      1       O    8    8.239426   -0.239426
      2       C    6    5.760574    0.239426

  MBIS Dipoles: [e a0]
   Center  Symbol  Z        X           Y           Z
      1       O    8    0.000000    0.000000   -0.100167
      2       C    6   -0.000000    0.000000   -0.240831

  MBIS Quadrupoles: [e a0^2]
   Center  Symbol  Z      XX        XY        XZ        YY        YZ        ZZ
      1       O    8   -3.9518   -0.0000    0.0000   -3.9518    0.0000   -4.0408
      2       C    6   -3.9630   -0.0000    0.0000   -3.9630    0.0000   -4.6349

  MBIS Octupoles: [e a0^3]
   Center  Symbol  Z      XXX       XXY       XXZ       XYY       XYZ       XZZ       YYY       YYZ       YZZ       ZZZ
      1       O    8    0.0000   -0.0000   -0.0691   -0.0000    0.0000    0.0000   -0.0000   -0.0691    0.0000   -0.2841
      2       C    6   -0.0000    0.0000   -0.0844   -0.0000    0.0000    0.0000    0.0000   -0.0844    0.0000   -0.4003

  MBIS Radial Moments:
   Center  Symbol  Z      [a0^2]      [a0^3]      [a0^4]
      1       O    8   11.944451   22.578888   51.073483
      2       C    6   12.560943   30.190675   86.029388

  MBIS Valence Widths: [a0]
   Center  Symbol  Z     Width
      1       O    8    0.390214
      2       C    6    0.511451

*** tstop() called on Mac.lan at Sun Aug 10 17:18:16 2025
Module time:
	user time   =      11.62 seconds =       0.19 minutes
	system time =       2.87 seconds =       0.05 minutes
	total time  =          2 seconds =       0.03 minutes
Total time:
	user time   =      57.39 seconds =       0.96 minutes
	system time =       6.49 seconds =       0.11 minutes
	total time  =          7 seconds =       0.12 minutes

    Psi4 stopped on: Sunday, 10 August 2025 05:18PM
    Psi4 wall time for execution: 0:00:06.46

*** Psi4 exiting successfully. Buy a developer a beer!
