                               Psi4 1.9.1 release

  ==> Input File <==

--------------------------------------------------------------------------
molecule {
0 2
C           0.000000           0.000000           0.000000
H           0.000000           0.000000           1.437878
}

set {
basis              cc-pvtz
reference          uks
maxiter            500
DAMPING_PERCENTAGE 1
E_CONVERGENCE      1.0E-8
D_CONVERGENCE      1.0E-8
DIIS_MAX_VECS      400
MBIS_MAXITER       8000
guess              read
}

E, wfn = energy('b3lyp', restart_file='last_wfn', return_wfn=True)
properties('b3lyp','MBIS_CHARGES', wfn=wfn)
wfn.to_file('last_wfn')
--------------------------------------------------------------------------

    Molecular point group: c2v
  Charge       = 0
  Multiplicity = 2
  Basis Set: CC-PVTZ
    Blend: CC-PVTZ
  Basis Set: (CC-PVTZ AUX)
    Blend: CC-PVTZ-JKFIT
  @DF-UKS Final Energy:   -38.46786321348598
    Total Energy =                        -38.4678632134859910
 Dipole X            :          0.0000000            0.0000000            0.0000000
 Dipole Y            :          0.0000000            0.0000000            0.0000000
 Dipole Z            :         -0.9243439            1.2435285            0.3191846
 Magnitude           :                                                    0.3191846
    Molecular point group: c2v

    Geometry (in Angstrom), charge = 0, multiplicity = 2:

       Center              X                  Y                   Z               Mass
    ------------   -----------------  -----------------  -----------------  -----------------
         C            0.000000000000     0.000000000000    -0.111404438336    12.000000000000
         H            0.000000000000     0.000000000000     1.326473561664     1.007825032230

  Charge       = 0
  Multiplicity = 2
  Basis Set: CC-PVTZ
    Blend: CC-PVTZ
  Basis Set: (CC-PVTZ AUX)
    Blend: CC-PVTZ-JKFIT

    Orbital Energies [Eh]
    ---------------------

    Alpha Occupied:

       1A1   -10.314462     2A1    -0.604645     3A1    -0.317690
       1B1    -0.266807

    Alpha Virtual:

       1B2    -0.153081     4A1     0.003927     5A1     0.262279
       2B1     0.286142     2B2     0.305638     6A1     0.316296
       7A1     0.449927     3B1     0.542371     3B2     0.544564
       1A2     0.652746     8A1     0.658475     9A1     0.871249
       4B1     0.943979     4B2     0.945136    10A1     1.196700
       5B1     1.896367     5B2     1.923084    11A1     2.109630
      12A1     2.431863     6B1     2.544027     6B2     2.547709
       2A2     2.574981    13A1     2.579348     7B1     2.634482
       7B2     2.637055    14A1     2.648575     3A2     2.880941
      15A1     2.893632     8B1     2.987173     8B2     3.002916
      16A1     3.134903     4A2     3.321141    17A1     3.322127
       9B2     3.665464     9B1     3.667411    18A1     3.671500
      10B2     4.052140    10B1     4.052873    19A1     4.225452
      20A1     5.834867

    Beta Occupied:

       1A1   -10.299027     2A1    -0.555055     3A1    -0.303959

    Beta Virtual:

       1B2    -0.136727     1B1    -0.089646     4A1     0.012889
       5A1     0.263746     2B2     0.313009     6A1     0.324415
       2B1     0.341954     7A1     0.471123     3B2     0.544708
       3B1     0.562998     8A1     0.695833     1A2     0.696296
       9A1     0.883902     4B2     0.946213     4B1     0.965890
      10A1     1.200841     5B2     1.933865     5B1     1.977445
      11A1     2.122047    12A1     2.431640     6B2     2.551261
       6B1     2.581952    13A1     2.606743     2A2     2.608745
      14A1     2.669909     7B2     2.693319     7B1     2.693959
      15A1     2.958639     3A2     2.959047     8B2     3.009392
       8B1     3.052742    16A1     3.158838     4A2     3.324204
      17A1     3.324618     9B2     3.658726     9B1     3.665319
      18A1     3.686222    10B2     4.049666    10B1     4.065107
      19A1     4.224310    20A1     5.848422

    Final Occupation by Irrep:
             A1    A2    B1    B2
    DOCC [     3,    0,    0,    0 ]
    SOCC [     0,    0,    1,    0 ]
    NA   [     3,    0,    1,    0 ]
    NB   [     3,    0,    0,    0 ]

  @DF-UKS Final Energy:   -38.46786321260712

   => Energetics <=

    Nuclear Repulsion Energy =              2.2081590121136845
    One-Electron Energy =                 -55.4548712219093147
    Two-Electron Energy =                  19.2575428878965269
    DFT Exchange-Correlation Energy =      -4.4786938907080156
    Empirical Dispersion Energy =           0.0000000000000000
    VV10 Nonlocal Energy =                  0.0000000000000000
    Total Energy =                        -38.4678632126071207

  UHF NO Occupations:
  HONO-2 :    2 A1 1.9994578
  HONO-1 :    3 A1 1.9985457
  HONO-0 :    1 B1 1.0000000
  LUNO+0 :    4 A1 0.0014543
  LUNO+1 :    5 A1 0.0005422
  LUNO+2 :    6 A1 0.0000007
  LUNO+3 :    7 A1 0.0000000

Computation Completed

Properties will be evaluated at   0.000000,   0.000000,   0.000000 [a0]

Properties computed using the B3LYP density matrix

 Multipole Moments:

 ------------------------------------------------------------------------------------
     Multipole            Electronic (a.u.)      Nuclear  (a.u.)        Total (a.u.)
 ------------------------------------------------------------------------------------

 L = 1.  Multiply by 2.5417464519 to convert [e a0] to [Debye]
 Dipole X            :          0.0000000            0.0000000            0.0000000
 Dipole Y            :          0.0000000            0.0000000            0.0000000
 Dipole Z            :         -0.9243439            1.2435285            0.3191846
 Magnitude           :                                                    0.3191846

 L = 2.  Multiply by 1.3450342976 to convert [e a0^2] to [Debye ang]
 Quadrupole XX       :         -5.9067532            0.0000000           -5.9067532
 Quadrupole XY       :          0.0000000            0.0000000            0.0000000
 Quadrupole XZ       :          0.0000000            0.0000000            0.0000000
 Quadrupole YY       :         -4.4414673            0.0000000           -4.4414673
 Quadrupole YZ       :          0.0000000            0.0000000            0.0000000
 Quadrupole ZZ       :        -12.2864420            6.5493251           -5.7371170
 Traceless XX        :          1.6381343           -2.1831084           -0.5449741
 Traceless YY        :          3.1034202           -2.1831084            0.9203119
 Traceless ZZ        :         -4.7415545            4.3662167           -0.3753378

 ------------------------------------------------------------------------------------
  ==> Computing MBIS Charges <==

  Electron Count from Grid (Expected Number):  7.00000 ( 7.00000)
  Difference:  0.00000

  MBIS Charges: (a.u.)
   Center  Symbol  Z      Pop.       Charge
      1       C    6    6.008927   -0.008927
      2       H    1    0.991073    0.008927

  MBIS Dipoles: [e a0]
   Center  Symbol  Z        X           Y           Z
      1       C    6    0.000000   -0.000000    0.219332
      2       H    1   -0.000000   -0.000000    0.075596

  MBIS Quadrupoles: [e a0^2]
   Center  Symbol  Z      XX        XY        XZ        YY        YZ        ZZ
      1       C    6   -5.0640    0.0000    0.0000   -3.6744    0.0000   -5.2592
      2       H    1   -0.8428   -0.0000    0.0000   -0.7671    0.0000   -0.8202

  MBIS Octupoles: [e a0^3]
   Center  Symbol  Z      XXX       XXY       XXZ       XYY       XYZ       XZZ       YYY       YYZ       YZZ       ZZZ
      1       C    6    0.0000    0.0000    0.2553   -0.0000   -0.0000    0.0000   -0.0000    0.2135   -0.0000    0.3830
      2       H    1    0.0000    0.0000    0.0113    0.0000   -0.0000    0.0000    0.0000   -0.0616    0.0000    0.0250

  MBIS Radial Moments:
   Center  Symbol  Z      [a0^2]      [a0^3]      [a0^4]
      1       C    6   13.997588   34.805835   103.432745
      2       H    1    2.430085    5.451207   14.670973

  MBIS Valence Widths: [a0]
   Center  Symbol  Z     Width
      1       C    6    0.523966
      2       H    1    0.454421

*** tstop() called on Mac.lan at Sun Aug 10 17:09:31 2025
Module time:
	user time   =       2.97 seconds =       0.05 minutes
	system time =       1.25 seconds =       0.02 minutes
	total time  =          0 seconds =       0.00 minutes
Total time:
	user time   =      13.64 seconds =       0.23 minutes
	system time =       3.25 seconds =       0.05 minutes
	total time  =          1 seconds =       0.02 minutes

    Psi4 stopped on: Sunday, 10 August 2025 05:09PM
    Psi4 wall time for execution: 0:00:01.65

*** Psi4 exiting successfully. Buy a developer a beer!
