                               Psi4 1.9.1 release

  ==> Input File <==

--------------------------------------------------------------------------
molecule {
0 3
C           0.000000           0.000000           0.000000
C           0.000000           0.000000           1.020193
}

set {
basis              cc-pvtz
reference          uks
maxiter            500
DAMPING_PERCENTAGE 1
E_CONVERGENCE      1.0E-8
D_CONVERGENCE      1.0E-8
DIIS_MAX_VECS      400
MBIS_MAXITER       8000
guess              read
}

E, wfn = energy('b3lyp', restart_file='last_wfn', return_wfn=True)
properties('b3lyp','MBIS_CHARGES', wfn=wfn)
wfn.to_file('last_wfn')
--------------------------------------------------------------------------

    Molecular point group: d2h
  Charge       = 0
  Multiplicity = 3
  Basis Set: CC-PVTZ
    Blend: CC-PVTZ
  Basis Set: (CC-PVTZ AUX)
    Blend: CC-PVTZ-JKFIT
  @DF-UKS Final Energy:   -75.77391220077578
    Total Energy =                        -75.7739122007757970
 Dipole X            :          0.0000000            0.0000000            0.0000000
 Dipole Y            :          0.0000000            0.0000000            0.0000000
 Dipole Z            :          0.0000000            0.0000000            0.0000000
 Magnitude           :                                                    0.0000000
    Molecular point group: d2h

    Geometry (in Angstrom), charge = 0, multiplicity = 3:

       Center              X                  Y                   Z               Mass
    ------------   -----------------  -----------------  -----------------  -----------------
         C            0.000000000000     0.000000000000    -0.510096500000    12.000000000000
         C            0.000000000000     0.000000000000     0.510096500000    12.000000000000

  Charge       = 0
  Multiplicity = 3
  Basis Set: CC-PVTZ
    Blend: CC-PVTZ
  Basis Set: (CC-PVTZ AUX)
    Blend: CC-PVTZ-JKFIT

    Orbital Energies [Eh]
    ---------------------

    Alpha Occupied:

       1Ag   -10.242736     1B1u  -10.230707     2Ag    -0.915897
       1B3u   -0.448476     1B2u   -0.405219     2B1u   -0.405020
       3Ag    -0.364642

    Alpha Virtual:

       1B2g    0.040216     1B3g    0.064968     3B1u    0.186929
       2B3u    0.229287     2B2u    0.244787     4Ag     0.251249
       5Ag     0.339785     2B2g    0.388105     2B3g    0.405158
       1B1g    0.539264     6Ag     0.540117     4B1u    0.578590
       3B3u    0.815087     5B1u    0.819295     3B2u    0.837712
       1Au     0.899791     6B1u    0.901525     7Ag     1.096529
       3B2g    1.132898     3B3g    1.147890     7B1u    1.786528
       4B3u    1.809714     4B2u    1.841916     8Ag     2.140234
       4B2g    2.294257     4B3g    2.323155     8B1u    2.372072
       5B3u    2.404728     5B2u    2.404884     2B1g    2.422621
       9Ag     2.424268     6B3u    2.583459     6B2u    2.615839
      10Ag     2.798934     5B2g    2.913416     5B3g    2.934276
       6B2g    2.973390     6B3g    2.973964     2Au     2.974431
       9B1u    2.974502     3B1g    2.975056    11Ag     2.975982
      12Ag     3.475515    10B1u    3.510383     7B3u    3.688063
       7B2u    3.715971     3Au     3.848941    11B1u    3.849408
      12B1u    4.623632     7B2g    5.081958     7B3g    5.113324
      13Ag     5.858264    13B1u   17.035103

    Beta Occupied:

       1Ag   -10.224071     1B1u  -10.213020     2Ag    -0.835868
       1B2u   -0.382883     2B1u   -0.316001

    Beta Virtual:

       1B3u   -0.275539     3Ag    -0.212185     1B3g    0.086341
       1B2g    0.101124     3B1u    0.199848     2B2u    0.251270
       2B3u    0.259601     4Ag     0.270981     5Ag     0.378207
       2B3g    0.417499     2B2g    0.430070     1B1g    0.569989
       6Ag     0.572888     4B1u    0.606021     5B1u    0.862117
       3B2u    0.864464     3B3u    0.865700     1Au     0.923543
       6B1u    0.925368     7Ag     1.136218     3B3g    1.165142
       3B2g    1.168622     7B1u    1.848506     4B2u    1.857540
       4B3u    1.870585     8Ag     2.188997     4B3g    2.337282
       4B2g    2.345622     8B1u    2.418305     5B2u    2.443156
       5B3u    2.444311     2B1g    2.467044     9Ag     2.471042
       6B2u    2.659425     6B3u    2.672174    10Ag     2.873512
       5B3g    2.981436     5B2g    2.984855     6B3g    3.009447
       6B2g    3.010750     2Au     3.023051     3B1g    3.025516
       9B1u    3.027297    11Ag     3.029694    12Ag     3.517319
      10B1u    3.568568     7B2u    3.753461     7B3u    3.756470
       3Au     3.891221    11B1u    3.895030    12B1u    4.682568
       7B3g    5.146963     7B2g    5.158259    13Ag     5.902291
      13B1u   17.061409

    Final Occupation by Irrep:
             Ag   B1g   B2g   B3g    Au   B1u   B2u   B3u
    DOCC [     2,    0,    0,    0,    0,    2,    1,    0 ]
    SOCC [     1,    0,    0,    0,    0,    0,    0,    1 ]
    NA   [     3,    0,    0,    0,    0,    2,    1,    1 ]
    NB   [     2,    0,    0,    0,    0,    2,    1,    0 ]

  @DF-UKS Final Energy:   -75.77391220094387

   => Energetics <=

    Nuclear Repulsion Energy =             18.6733094464674849
    One-Electron Energy =                -137.5822007780992635
    Two-Electron Energy =                  51.9186472698761747
    DFT Exchange-Correlation Energy =      -8.7836681391882649
    Empirical Dispersion Energy =           0.0000000000000000
    VV10 Nonlocal Energy =                  0.0000000000000000
    Total Energy =                        -75.7739122009438688

  UHF NO Occupations:
  HONO-2 :    2B1u 1.9983778
  HONO-1 :    1B3u 1.0000000
  HONO-0 :    3 Ag 1.0000000
  LUNO+0 :    3B1u 0.0016222
  LUNO+1 :    4 Ag 0.0003877
  LUNO+2 :    2B2u 0.0001204
  LUNO+3 :    4B1u 0.0000007

Computation Completed

Properties will be evaluated at   0.000000,   0.000000,   0.000000 [a0]

Properties computed using the B3LYP density matrix

 Multipole Moments:

 ------------------------------------------------------------------------------------
     Multipole            Electronic (a.u.)      Nuclear  (a.u.)        Total (a.u.)
 ------------------------------------------------------------------------------------

 L = 1.  Multiply by 2.5417464519 to convert [e a0] to [Debye]
 Dipole X            :          0.0000000            0.0000000            0.0000000
 Dipole Y            :          0.0000000            0.0000000            0.0000000
 Dipole Z            :          0.0000000            0.0000000            0.0000000
 Magnitude           :                                                    0.0000000

 L = 2.  Multiply by 1.3450342976 to convert [e a0^2] to [Debye ang]
 Quadrupole XX       :         -7.2326563            0.0000000           -7.2326563
 Quadrupole XY       :          0.0000000            0.0000000            0.0000000
 Quadrupole XZ       :          0.0000000            0.0000000            0.0000000
 Quadrupole YY       :         -8.4296323            0.0000000           -8.4296323
 Quadrupole YZ       :          0.0000000            0.0000000            0.0000000
 Quadrupole ZZ       :        -20.4467737           11.1502259           -9.2965477
 Traceless XX        :          4.8036978           -3.7167420            1.0869558
 Traceless YY        :          3.6067218           -3.7167420           -0.1100202
 Traceless ZZ        :         -8.4104196            7.4334840           -0.9769356

 ------------------------------------------------------------------------------------
  ==> Computing MBIS Charges <==

  Electron Count from Grid (Expected Number): 12.00000 (12.00000)
  Difference: -0.00000

  MBIS Charges: (a.u.)
   Center  Symbol  Z      Pop.       Charge
      1       C    6    6.000000    0.000000
      2       C    6    6.000000    0.000000

  MBIS Dipoles: [e a0]
   Center  Symbol  Z        X           Y           Z
      1       C    6   -0.000000    0.000000    0.034324
      2       C    6   -0.000000    0.000000   -0.034324

  MBIS Quadrupoles: [e a0^2]
   Center  Symbol  Z      XX        XY        XZ        YY        YZ        ZZ
      1       C    6   -3.6163    0.0000    0.0000   -4.2148   -0.0000   -4.5821
      2       C    6   -3.6163   -0.0000   -0.0000   -4.2148    0.0000   -4.5821

  MBIS Octupoles: [e a0^3]
   Center  Symbol  Z      XXX       XXY       XXZ       XYY       XYZ       XZZ       YYY       YYZ       YZZ       ZZZ
      1       C    6   -0.0000   -0.0000    0.2822   -0.0000    0.0000   -0.0000    0.0000    0.1114    0.0000    0.6574
      2       C    6   -0.0000   -0.0000   -0.2822   -0.0000   -0.0000   -0.0000    0.0000   -0.1114    0.0000   -0.6574

  MBIS Radial Moments:
   Center  Symbol  Z      [a0^2]      [a0^3]      [a0^4]
      1       C    6   12.413245   29.264564   82.849267
      2       C    6   12.413245   29.264564   82.849267

  MBIS Valence Widths: [a0]
   Center  Symbol  Z     Width
      1       C    6    0.489809
      2       C    6    0.489809

*** tstop() called on Mac.lan at Sun Aug 10 17:03:36 2025
Module time:
	user time   =       3.59 seconds =       0.06 minutes
	system time =       2.34 seconds =       0.04 minutes
	total time  =          0 seconds =       0.00 minutes
Total time:
	user time   =      15.94 seconds =       0.27 minutes
	system time =       4.84 seconds =       0.08 minutes
	total time  =          2 seconds =       0.03 minutes

    Psi4 stopped on: Sunday, 10 August 2025 05:03PM
    Psi4 wall time for execution: 0:00:02.03

*** Psi4 exiting successfully. Buy a developer a beer!
