                               Psi4 1.9.1 release

  ==> Input File <==

--------------------------------------------------------------------------
molecule {
0 1
N           0.000000           0.000000           0.000000
N           0.000000           0.000000           1.276184
}

set {
basis              cc-pvtz
reference          uks
maxiter            500
DAMPING_PERCENTAGE 1
E_CONVERGENCE      1.0E-8
D_CONVERGENCE      1.0E-8
DIIS_MAX_VECS      400
MBIS_MAXITER       8000
guess              read
}

E, wfn = energy('b3lyp', restart_file='last_wfn', return_wfn=True)
properties('b3lyp','MBIS_CHARGES', wfn=wfn)
wfn.to_file('last_wfn')
--------------------------------------------------------------------------

    Molecular point group: d2h
  Charge       = 0
  Multiplicity = 1
  Basis Set: CC-PVTZ
    Blend: CC-PVTZ
  Basis Set: (CC-PVTZ AUX)
    Blend: CC-PVTZ-JKFIT
  @DF-UKS Final Energy:  -109.50445423180625
    Total Energy =                       -109.5044542318062497
 Dipole X            :          0.0000000            0.0000000            0.0000000
 Dipole Y            :          0.0000000            0.0000000            0.0000000
 Dipole Z            :          0.0000000           -0.0000000           -0.0000000
 Magnitude           :                                                    0.0000000
    Molecular point group: d2h

    Geometry (in Angstrom), charge = 0, multiplicity = 1:

       Center              X                  Y                   Z               Mass
    ------------   -----------------  -----------------  -----------------  -----------------
         N            0.000000000000     0.000000000000    -0.638092000000    14.003074004430
         N            0.000000000000     0.000000000000     0.638092000000    14.003074004430

  Charge       = 0
  Multiplicity = 1
  Basis Set: CC-PVTZ
    Blend: CC-PVTZ
  Basis Set: (CC-PVTZ AUX)
    Blend: CC-PVTZ-JKFIT

    Orbital Energies [Eh]
    ---------------------

    Alpha Occupied:

       1Ag   -14.464000     1B1u  -14.463503     2Ag    -1.029323
       2B1u   -0.601705     3Ag    -0.425179     1B3u   -0.420737
       1B2u   -0.420737

    Alpha Virtual:

       1B3g   -0.099204     1B2g   -0.099204     3B1u    0.238563
       2B3u    0.407432     2B2u    0.407432     4Ag     0.429147
       4B1u    0.478854     5Ag     0.482133     2B2g    0.514398
       2B3g    0.514398     1B1g    0.851729     6Ag     0.851729
       5B1u    0.852228     3B3u    0.993298     3B2u    0.993298
       1Au     1.204134     6B1u    1.204134     3B2g    1.635018
       3B3g    1.635018     7Ag     1.642473     7B1u    1.677803
       4B3u    2.715126     4B2u    2.715126     8Ag     2.846633
       4B2g    2.949419     4B3g    2.949419     2B1g    3.449889
       9Ag     3.449889     5B3u    3.512512     5B2u    3.512512
       8B1u    3.548660     6B2u    3.689226     6B3u    3.689226
      10Ag     3.737891     5B3g    3.962555     5B2g    3.962555
       9B1u    4.280257    11Ag     4.330523     3B1g    4.330523
      10B1u    4.384782     2Au     4.384782     6B2g    4.577093
       6B3g    4.577093     3Au     4.623637    11B1u    4.623638
       7B3u    4.751866     7B2u    4.751866    12B1u    5.177970
      12Ag     5.333055    13Ag     5.616413     7B2g    5.732502
       7B3g    5.732502    13B1u   10.913529

    Beta Occupied:

       1Ag   -14.464000     1B1u  -14.463503     2Ag    -1.029323
       2B1u   -0.601705     3Ag    -0.425179     1B3u   -0.420737
       1B2u   -0.420737

    Beta Virtual:

       1B3g   -0.099204     1B2g   -0.099204     3B1u    0.238563
       2B3u    0.407432     2B2u    0.407432     4Ag     0.429147
       4B1u    0.478854     5Ag     0.482133     2B2g    0.514398
       2B3g    0.514398     1B1g    0.851729     6Ag     0.851729
       5B1u    0.852228     3B3u    0.993298     3B2u    0.993298
       1Au     1.204134     6B1u    1.204134     3B2g    1.635018
       3B3g    1.635018     7Ag     1.642473     7B1u    1.677803
       4B3u    2.715126     4B2u    2.715126     8Ag     2.846633
       4B2g    2.949419     4B3g    2.949419     2B1g    3.449889
       9Ag     3.449889     5B3u    3.512512     5B2u    3.512512
       8B1u    3.548660     6B2u    3.689226     6B3u    3.689226
      10Ag     3.737891     5B3g    3.962555     5B2g    3.962555
       9B1u    4.280257    11Ag     4.330523     3B1g    4.330523
      10B1u    4.384782     2Au     4.384782     6B2g    4.577093
       6B3g    4.577093     3Au     4.623637    11B1u    4.623638
       7B3u    4.751866     7B2u    4.751866    12B1u    5.177970
      12Ag     5.333055    13Ag     5.616413     7B2g    5.732502
       7B3g    5.732502    13B1u   10.913529

    Final Occupation by Irrep:
             Ag   B1g   B2g   B3g    Au   B1u   B2u   B3u
    DOCC [     3,    0,    0,    0,    0,    2,    1,    1 ]
    SOCC [     0,    0,    0,    0,    0,    0,    0,    0 ]
    NA   [     3,    0,    0,    0,    0,    2,    1,    1 ]
    NB   [     3,    0,    0,    0,    0,    2,    1,    1 ]

  @DF-UKS Final Energy:  -109.50445423202873

   => Energetics <=

    Nuclear Repulsion Energy =             20.3181385465026985
    One-Electron Energy =                -188.1243894251428515
    Two-Electron Energy =                  69.2341195836203980
    DFT Exchange-Correlation Energy =     -10.9323229370089692
    Empirical Dispersion Energy =           0.0000000000000000
    VV10 Nonlocal Energy =                  0.0000000000000000
    Total Energy =                       -109.5044542320287349

  UHF NO Occupations:
  HONO-2 :    3 Ag 2.0000000
  HONO-1 :    1B3u 2.0000000
  HONO-0 :    2B1u 2.0000000
  LUNO+0 :    4 Ag 0.0000000
  LUNO+1 :    5 Ag 0.0000000
  LUNO+2 :    3B1u 0.0000000
  LUNO+3 :    4B1u 0.0000000

Computation Completed

Properties will be evaluated at   0.000000,   0.000000,   0.000000 [a0]

Properties computed using the B3LYP density matrix

 Multipole Moments:

 ------------------------------------------------------------------------------------
     Multipole            Electronic (a.u.)      Nuclear  (a.u.)        Total (a.u.)
 ------------------------------------------------------------------------------------

 L = 1.  Multiply by 2.5417464519 to convert [e a0] to [Debye]
 Dipole X            :          0.0000000            0.0000000            0.0000000
 Dipole Y            :          0.0000000            0.0000000            0.0000000
 Dipole Z            :          0.0000000           -0.0000000           -0.0000000
 Magnitude           :                                                    0.0000000

 L = 2.  Multiply by 1.3450342976 to convert [e a0^2] to [Debye ang]
 Quadrupole XX       :         -7.9042943            0.0000000           -7.9042943
 Quadrupole XY       :          0.0000000            0.0000000            0.0000000
 Quadrupole XZ       :          0.0000000            0.0000000            0.0000000
 Quadrupole YY       :         -7.9042943            0.0000000           -7.9042943
 Quadrupole YZ       :          0.0000000            0.0000000            0.0000000
 Quadrupole ZZ       :        -29.0616575           20.3559966           -8.7056609
 Traceless XX        :          7.0524544           -6.7853322            0.2671222
 Traceless YY        :          7.0524544           -6.7853322            0.2671222
 Traceless ZZ        :        -14.1049088           13.5706644           -0.5342444

 ------------------------------------------------------------------------------------
  ==> Computing MBIS Charges <==

  Electron Count from Grid (Expected Number): 14.00000 (14.00000)
  Difference:  0.00000

  MBIS Charges: (a.u.)
   Center  Symbol  Z      Pop.       Charge
      1       N    7    7.000000   -0.000000
      2       N    7    7.000000   -0.000000

  MBIS Dipoles: [e a0]
   Center  Symbol  Z        X           Y           Z
      1       N    7    0.000000   -0.000000    0.019287
      2       N    7   -0.000000    0.000000   -0.019287

  MBIS Quadrupoles: [e a0^2]
   Center  Symbol  Z      XX        XY        XZ        YY        YZ        ZZ
      1       N    7   -3.9521    0.0000   -0.0000   -3.9521    0.0000   -4.3063
      2       N    7   -3.9521    0.0000    0.0000   -3.9521   -0.0000   -4.3063

  MBIS Octupoles: [e a0^3]
   Center  Symbol  Z      XXX       XXY       XXZ       XYY       XYZ       XZZ       YYY       YYZ       YZZ       ZZZ
      1       N    7   -0.0000   -0.0000   -0.0675   -0.0000    0.0000   -0.0000   -0.0000   -0.0675    0.0000   -0.1033
      2       N    7   -0.0000   -0.0000    0.0675   -0.0000   -0.0000   -0.0000   -0.0000    0.0675   -0.0000    0.1033

  MBIS Radial Moments:
   Center  Symbol  Z      [a0^2]      [a0^3]      [a0^4]
      1       N    7   12.210612   25.612114   64.002090
      2       N    7   12.210612   25.612114   64.002090

  MBIS Valence Widths: [a0]
   Center  Symbol  Z     Width
      1       N    7    0.439403
      2       N    7    0.439403

*** tstop() called on Mac.lan at Sun Aug 10 17:06:46 2025
Module time:
	user time   =       5.37 seconds =       0.09 minutes
	system time =       1.84 seconds =       0.03 minutes
	total time  =          0 seconds =       0.00 minutes
Total time:
	user time   =      17.26 seconds =       0.29 minutes
	system time =       3.99 seconds =       0.07 minutes
	total time  =          2 seconds =       0.03 minutes

    Psi4 stopped on: Sunday, 10 August 2025 05:06PM
    Psi4 wall time for execution: 0:00:02.24

*** Psi4 exiting successfully. Buy a developer a beer!
