                               Psi4 1.9.1 release

  ==> Input File <==

--------------------------------------------------------------------------
molecule {
0 3
O           0.000000           0.000000           0.000000
O           0.000000           0.000000           0.989271
}

set {
basis              cc-pvtz
reference          uks
maxiter            500
DAMPING_PERCENTAGE 1
E_CONVERGENCE      1.0E-8
D_CONVERGENCE      1.0E-8
DIIS_MAX_VECS      400
MBIS_MAXITER       8000
guess              read
}

E, wfn = energy('b3lyp', restart_file='last_wfn', return_wfn=True)
properties('b3lyp','MBIS_CHARGES', wfn=wfn)
wfn.to_file('last_wfn')
--------------------------------------------------------------------------

    Molecular point group: d2h
  Charge       = 0
  Multiplicity = 3
  Basis Set: CC-PVTZ
    Blend: CC-PVTZ
  Basis Set: (CC-PVTZ AUX)
    Blend: CC-PVTZ-JKFIT
  @DF-UKS Final Energy:  -150.26369689662423
    Total Energy =                       -150.2636968966242250
 Dipole X            :          0.0000000            0.0000000            0.0000000
 Dipole Y            :          0.0000000            0.0000000            0.0000000
 Dipole Z            :          0.0000000            0.0000000            0.0000000
 Magnitude           :                                                    0.0000000
    Molecular point group: d2h

    Geometry (in Angstrom), charge = 0, multiplicity = 3:

       Center              X                  Y                   Z               Mass
    ------------   -----------------  -----------------  -----------------  -----------------
         O            0.000000000000     0.000000000000    -0.494635500000    15.994914619570
         O            0.000000000000     0.000000000000     0.494635500000    15.994914619570

  Charge       = 0
  Multiplicity = 3
  Basis Set: CC-PVTZ
    Blend: CC-PVTZ
  Basis Set: (CC-PVTZ AUX)
    Blend: CC-PVTZ-JKFIT

    Orbital Energies [Eh]
    ---------------------

    Alpha Occupied:

       1Ag   -19.259570     1B1u  -19.258169     2Ag    -1.518063
       2B1u   -0.771639     1B3u   -0.664662     1B2u   -0.664662
       3Ag    -0.589389     1B3g   -0.217771     1B2g   -0.217771

    Alpha Virtual:

       3B1u    0.330510     2B3u    0.466743     2B2u    0.466743
       4Ag     0.514623     2B2g    0.625783     2B3g    0.625783
       5Ag     0.648982     4B1u    0.780146     6Ag     1.146902
       1B1g    1.146902     5B1u    1.156237     3B2u    1.442091
       3B3u    1.442091     1Au     1.695354     6B1u    1.695354
       7Ag     2.189137     3B3g    2.254439     3B2g    2.254439
       7B1u    2.367574     4B2u    3.412091     4B3u    3.412091
       8Ag     3.721482     4B3g    3.853114     4B2g    3.853114
       8B1u    4.435259     2B1g    4.517319     9Ag     4.517319
       5B2u    4.712905     5B3u    4.712905     6B3u    4.765212
       6B2u    4.765212     5B3g    5.280571     5B2g    5.280571
      10Ag     5.283196     9B1u    5.950572     3B1g    5.986594
      11Ag     5.986598     2Au     6.138415    10B1u    6.138418
       6B2g    6.156685     6B3g    6.156685     3Au     6.339386
      11B1u    6.339387     7B3u    6.708722     7B2u    6.708722
      12Ag     6.860694    12B1u    7.485855     7B2g    8.200959
       7B3g    8.200959    13Ag     8.259787    13B1u   19.681077

    Beta Occupied:

       1Ag   -19.229966     1B1u  -19.228345     2Ag    -1.473140
       2B1u   -0.685013     1B3u   -0.569571     1B2u   -0.569571
       3Ag    -0.542330

    Beta Virtual:

       1B2g   -0.023141     1B3g   -0.023141     3B1u    0.347064
       2B3u    0.495209     2B2u    0.495209     4Ag     0.521973
       2B2g    0.672920     2B3g    0.672920     5Ag     0.673859
       4B1u    0.823377     1B1g    1.186435     6Ag     1.186435
       5B1u    1.189804     3B2u    1.479266     3B3u    1.479266
       6B1u    1.760447     1Au     1.760448     7Ag     2.214296
       3B3g    2.294085     3B2g    2.294085     7B1u    2.394315
       4B2u    3.486215     4B3u    3.486215     8Ag     3.745154
       4B3g    3.926795     4B2g    3.926795     8B1u    4.478469
       2B1g    4.552105     9Ag     4.552105     5B2u    4.777493
       5B3u    4.777493     6B3u    4.799445     6B2u    4.799445
      10Ag     5.312077     5B3g    5.355978     5B2g    5.355978
       9B1u    5.988721     3B1g    6.092311    11Ag     6.092316
       6B2g    6.207702     6B3g    6.207702     2Au     6.239595
      10B1u    6.239599     3Au     6.396859    11B1u    6.396861
       7B3u    6.758343     7B2u    6.758343    12Ag     6.913974
      12B1u    7.519615     7B2g    8.245144     7B3g    8.245144
      13Ag     8.290973    13B1u   19.722849

    Final Occupation by Irrep:
             Ag   B1g   B2g   B3g    Au   B1u   B2u   B3u
    DOCC [     3,    0,    0,    0,    0,    2,    1,    1 ]
    SOCC [     0,    0,    1,    1,    0,    0,    0,    0 ]
    NA   [     3,    0,    1,    1,    0,    2,    1,    1 ]
    NB   [     3,    0,    0,    0,    0,    2,    1,    1 ]

  @DF-UKS Final Energy:  -150.26369689622419

   => Energetics <=

    Nuclear Repulsion Energy =             34.2346449889666218
    One-Electron Energy =                -273.5024886573463618
    Two-Electron Energy =                 102.9898150868037305
    DFT Exchange-Correlation Energy =     -13.9856683146481870
    Empirical Dispersion Energy =           0.0000000000000000
    VV10 Nonlocal Energy =                  0.0000000000000000
    Total Energy =                       -150.2636968962241895

  UHF NO Occupations:
  HONO-2 :    1B3u 1.9991331
  HONO-1 :    1B3g 1.0000000
  HONO-0 :    1B2g 1.0000000
  LUNO+0 :    2B2u 0.0008669
  LUNO+1 :    2B3u 0.0008669
  LUNO+2 :    3B1u 0.0006374
  LUNO+3 :    4 Ag 0.0002463

Computation Completed

Properties will be evaluated at   0.000000,   0.000000,   0.000000 [a0]

Properties computed using the B3LYP density matrix

 Multipole Moments:

 ------------------------------------------------------------------------------------
     Multipole            Electronic (a.u.)      Nuclear  (a.u.)        Total (a.u.)
 ------------------------------------------------------------------------------------

 L = 1.  Multiply by 2.5417464519 to convert [e a0] to [Debye]
 Dipole X            :          0.0000000            0.0000000            0.0000000
 Dipole Y            :          0.0000000            0.0000000            0.0000000
 Dipole Z            :          0.0000000            0.0000000            0.0000000
 Magnitude           :                                                    0.0000000

 L = 2.  Multiply by 1.3450342976 to convert [e a0^2] to [Debye ang]
 Quadrupole XX       :         -7.0427308            0.0000000           -7.0427308
 Quadrupole XY       :          0.0000000            0.0000000            0.0000000
 Quadrupole XZ       :          0.0000000            0.0000000            0.0000000
 Quadrupole YY       :         -7.0427308            0.0000000           -7.0427308
 Quadrupole YZ       :          0.0000000            0.0000000            0.0000000
 Quadrupole ZZ       :        -22.0109097           13.9793920           -8.0315178
 Traceless XX        :          4.9893930           -4.6597973            0.3295957
 Traceless YY        :          4.9893930           -4.6597973            0.3295957
 Traceless ZZ        :         -9.9787860            9.3195946           -0.6591913

 ------------------------------------------------------------------------------------
  ==> Computing MBIS Charges <==

  Electron Count from Grid (Expected Number): 16.00000 (16.00000)
  Difference:  0.00000

  MBIS Charges: (a.u.)
   Center  Symbol  Z      Pop.       Charge
      1       O    8    8.000000   -0.000000
      2       O    8    8.000000   -0.000000

  MBIS Dipoles: [e a0]
   Center  Symbol  Z        X           Y           Z
      1       O    8    0.000000   -0.000000    0.181088
      2       O    8   -0.000000   -0.000000   -0.181088

  MBIS Quadrupoles: [e a0^2]
   Center  Symbol  Z      XX        XY        XZ        YY        YZ        ZZ
      1       O    8   -3.5214    0.0000    0.0000   -3.5214    0.0000   -3.6772
      2       O    8   -3.5214   -0.0000   -0.0000   -3.5214   -0.0000   -3.6772

  MBIS Octupoles: [e a0^3]
   Center  Symbol  Z      XXX       XXY       XXZ       XYY       XYZ       XZZ       YYY       YYZ       YZZ       ZZZ
      1       O    8   -0.0000   -0.0000    0.2558    0.0000   -0.0000   -0.0000   -0.0000    0.2558   -0.0000    0.0876
      2       O    8   -0.0000   -0.0000   -0.2558    0.0000    0.0000    0.0000    0.0000   -0.2558   -0.0000   -0.0876

  MBIS Radial Moments:
   Center  Symbol  Z      [a0^2]      [a0^3]      [a0^4]
      1       O    8   10.719955   19.685523   43.509335
      2       O    8   10.719955   19.685523   43.509335

  MBIS Valence Widths: [a0]
   Center  Symbol  Z     Width
      1       O    8    0.374988
      2       O    8    0.374988

*** tstop() called on Mac.lan at Sun Aug 10 17:01:01 2025
Module time:
	user time   =       3.86 seconds =       0.06 minutes
	system time =       2.15 seconds =       0.04 minutes
	total time  =          1 seconds =       0.02 minutes
Total time:
	user time   =      16.52 seconds =       0.28 minutes
	system time =       4.56 seconds =       0.08 minutes
	total time  =          2 seconds =       0.03 minutes

    Psi4 stopped on: Sunday, 10 August 2025 05:01PM
    Psi4 wall time for execution: 0:00:02.06

*** Psi4 exiting successfully. Buy a developer a beer!
