                               Psi4 1.9.1 release

  ==> Input File <==

--------------------------------------------------------------------------
molecule {
0 2
N           0.000000           0.000000           0.000000
C           0.000000           0.000000           1.658745
}

set {
basis              cc-pvtz
reference          uks
maxiter            500
DAMPING_PERCENTAGE 1
E_CONVERGENCE      1.0E-8
D_CONVERGENCE      1.0E-8
DIIS_MAX_VECS      400
MBIS_MAXITER       8000
guess              read
}

E, wfn = energy('b3lyp', restart_file='last_wfn', return_wfn=True)
properties('b3lyp','MBIS_CHARGES', wfn=wfn)
wfn.to_file('last_wfn')
--------------------------------------------------------------------------

    Molecular point group: c2v
  Charge       = 0
  Multiplicity = 2
  Basis Set: CC-PVTZ
    Blend: CC-PVTZ
  Basis Set: (CC-PVTZ AUX)
    Blend: CC-PVTZ-JKFIT
  @DF-UKS Final Energy:   -92.56158865453378
    Total Energy =                        -92.5615886545337787
 Dipole X            :          0.0000000            0.0000000            0.0000000
 Dipole Y            :          0.0000000            0.0000000            0.0000000
 Dipole Z            :          0.4155202            0.0022234            0.4177436
 Magnitude           :                                                    0.4177436
    Molecular point group: c2v

    Geometry (in Angstrom), charge = 0, multiplicity = 2:

       Center              X                  Y                   Z               Mass
    ------------   -----------------  -----------------  -----------------  -----------------
         N            0.000000000000     0.000000000000    -0.765484111479    14.003074004430
         C            0.000000000000     0.000000000000     0.893260888521    12.000000000000

  Charge       = 0
  Multiplicity = 2
  Basis Set: CC-PVTZ
    Blend: CC-PVTZ
  Basis Set: (CC-PVTZ AUX)
    Blend: CC-PVTZ-JKFIT

    Orbital Energies [Eh]
    ---------------------

    Alpha Occupied:

       1A1   -14.458047     2A1   -10.388274     3A1    -0.822276
       4A1    -0.579786     5A1    -0.398064     1B1    -0.323202
       1B2    -0.323202

    Alpha Virtual:

       2B1    -0.141325     2B2    -0.141325     6A1     0.036688
       7A1     0.255499     3B2     0.292962     3B1     0.292962
       8A1     0.321791     9A1     0.433930     4B2     0.492078
       4B1     0.492078     1A2     0.632442    10A1     0.632442
       5B1     0.679416     5B2     0.679416    11A1     0.841771
      12A1     1.005181    13A1     1.065230     2A2     1.065230
       6B1     1.303157     6B2     1.303157    14A1     1.475428
       7B2     1.917230     7B1     1.917230    15A1     2.150519
       8B2     2.571948     8B1     2.571948     3A2     2.607609
      16A1     2.607609    17A1     2.619387     9B2     2.624898
       9B1     2.624898    18A1     2.880652     4A2     2.880657
      10B2     2.897587    10B1     2.897587    19A1     3.051190
      11B2     3.072671    11B1     3.072671    20A1     3.282943
      12B2     3.866950    12B1     3.866950    21A1     3.888927
      22A1     3.930151     5A2     3.930152    13B1     4.217361
      13B2     4.217361     6A2     4.421452    23A1     4.421464
      24A1     4.539180    14B1     4.733920    14B2     4.733920
      25A1     5.477863    26A1     6.471389

    Beta Occupied:

       1A1   -14.448822     2A1   -10.378902     3A1    -0.789620
       4A1    -0.523032     1B1    -0.315675     1B2    -0.315675

    Beta Virtual:

       5A1    -0.245221     2B1    -0.127902     2B2    -0.127902
       6A1     0.081641     7A1     0.288897     3B2     0.298024
       3B1     0.298024     8A1     0.342795     9A1     0.461149
       4B2     0.494418     4B1     0.494418    10A1     0.637556
       1A2     0.637556     5B2     0.705502     5B1     0.705502
      11A1     0.854107    12A1     1.042063    13A1     1.065340
       2A2     1.065341     6B1     1.329091     6B2     1.329091
      14A1     1.512197     7B2     1.926736     7B1     1.926736
      15A1     2.195873     8B2     2.596176     8B1     2.596176
       3A2     2.629969    16A1     2.629969     9B2     2.630501
       9B1     2.630501    17A1     2.664672    18A1     2.890850
       4A2     2.890855    10B2     2.915135    10B1     2.915135
      19A1     3.110388    11B2     3.112631    11B1     3.112631
      20A1     3.321129    12B2     3.862924    12B1     3.862924
      21A1     3.923566    22A1     3.947954     5A2     3.947954
      13B1     4.250484    13B2     4.250484     6A2     4.421495
      23A1     4.421507    24A1     4.605131    14B1     4.779608
      14B2     4.779608    25A1     5.513552    26A1     6.492048

    Final Occupation by Irrep:
             A1    A2    B1    B2
    DOCC [     4,    0,    1,    1 ]
    SOCC [     1,    0,    0,    0 ]
    NA   [     5,    0,    1,    1 ]
    NB   [     4,    0,    1,    1 ]

  @DF-UKS Final Energy:   -92.56158863375319

   => Energetics <=

    Nuclear Repulsion Energy =             13.3989509226192087
    One-Electron Energy =                -150.9396541892998584
    Two-Electron Energy =                  54.5694706702823709
    DFT Exchange-Correlation Energy =      -9.5903560373549155
    Empirical Dispersion Energy =           0.0000000000000000
    VV10 Nonlocal Energy =                  0.0000000000000000
    Total Energy =                        -92.5615886337531890

  UHF NO Occupations:
  HONO-2 :    1 B2 1.9991621
  HONO-1 :    4 A1 1.9959330
  HONO-0 :    5 A1 1.0000000
  LUNO+0 :    6 A1 0.0040670
  LUNO+1 :    2 B1 0.0008379
  LUNO+2 :    2 B2 0.0008379
  LUNO+3 :    7 A1 0.0002924

Computation Completed

Properties will be evaluated at   0.000000,   0.000000,   0.000000 [a0]

Properties computed using the B3LYP density matrix

 Multipole Moments:

 ------------------------------------------------------------------------------------
     Multipole            Electronic (a.u.)      Nuclear  (a.u.)        Total (a.u.)
 ------------------------------------------------------------------------------------

 L = 1.  Multiply by 2.5417464519 to convert [e a0] to [Debye]
 Dipole X            :          0.0000000            0.0000000            0.0000000
 Dipole Y            :          0.0000000            0.0000000            0.0000000
 Dipole Z            :          0.4155192            0.0022234            0.4177426
 Magnitude           :                                                    0.4177426

 L = 2.  Multiply by 1.3450342976 to convert [e a0^2] to [Debye ang]
 Quadrupole XX       :         -9.0894585            0.0000000           -9.0894585
 Quadrupole XY       :          0.0000000            0.0000000            0.0000000
 Quadrupole XZ       :          0.0000000            0.0000000            0.0000000
 Quadrupole YY       :         -9.0894585            0.0000000           -9.0894585
 Quadrupole YZ       :          0.0000000            0.0000000            0.0000000
 Quadrupole ZZ       :        -39.0322902           31.7440936           -7.2881966
 Traceless XX        :          9.9809439          -10.5813645           -0.6004206
 Traceless YY        :          9.9809439          -10.5813645           -0.6004206
 Traceless ZZ        :        -19.9618878           21.1627291            1.2008413

 ------------------------------------------------------------------------------------
  ==> Computing MBIS Charges <==

  Electron Count from Grid (Expected Number): 13.00000 (13.00000)
  Difference: -0.00000

  MBIS Charges: (a.u.)
   Center  Symbol  Z      Pop.       Charge
      1       N    7    7.171661   -0.171661
      2       C    6    5.828339    0.171661

  MBIS Dipoles: [e a0]
   Center  Symbol  Z        X           Y           Z
      1       N    7   -0.000000   -0.000000   -0.286077
      2       C    6   -0.000000    0.000000    0.165734

  MBIS Quadrupoles: [e a0^2]
   Center  Symbol  Z      XX        XY        XZ        YY        YZ        ZZ
      1       N    7   -4.6445    0.0000   -0.0000   -4.6445   -0.0000   -4.3743
      2       C    6   -4.4449    0.0000    0.0000   -4.4449    0.0000   -4.4310

  MBIS Octupoles: [e a0^3]
   Center  Symbol  Z      XXX       XXY       XXZ       XYY       XYZ       XZZ       YYY       YYZ       YZZ       ZZZ
      1       N    7   -0.0000   -0.0000   -0.4745   -0.0000    0.0000   -0.0000    0.0000   -0.4745    0.0000   -1.2824
      2       C    6   -0.0000   -0.0000    0.4867   -0.0000   -0.0000   -0.0000    0.0000    0.4867    0.0000    1.0856

  MBIS Radial Moments:
   Center  Symbol  Z      [a0^2]      [a0^3]      [a0^4]
      1       N    7   13.663319   30.073494   78.797164
      2       C    6   13.320899   32.886693   96.419708

  MBIS Valence Widths: [a0]
   Center  Symbol  Z     Width
      1       N    7    0.457913
      2       C    6    0.522701

*** tstop() called on Mac.lan at Sun Aug 10 17:15:53 2025
Module time:
	user time   =       4.07 seconds =       0.07 minutes
	system time =       1.54 seconds =       0.03 minutes
	total time  =          1 seconds =       0.02 minutes
Total time:
	user time   =      21.45 seconds =       0.36 minutes
	system time =       4.43 seconds =       0.07 minutes
	total time  =          3 seconds =       0.05 minutes

    Psi4 stopped on: Sunday, 10 August 2025 05:15PM
    Psi4 wall time for execution: 0:00:02.51

*** Psi4 exiting successfully. Buy a developer a beer!
