                               Psi4 1.9.1 release

  ==> Input File <==

--------------------------------------------------------------------------
molecule {
0 2
O           0.000000           0.000000           0.000000
N           0.000000           0.000000           1.087485
}

set {
basis              cc-pvtz
reference          uks
maxiter            500
DAMPING_PERCENTAGE 1
E_CONVERGENCE      1.0E-8
D_CONVERGENCE      1.0E-8
DIIS_MAX_VECS      400
MBIS_MAXITER       8000
guess              read
}

E, wfn = energy('b3lyp', restart_file='last_wfn', return_wfn=True)
properties('b3lyp','MBIS_CHARGES', wfn=wfn)
wfn.to_file('last_wfn')
--------------------------------------------------------------------------

    Molecular point group: c2v
  Charge       = 0
  Multiplicity = 2
  Basis Set: CC-PVTZ
    Blend: CC-PVTZ
  Basis Set: (CC-PVTZ AUX)
    Blend: CC-PVTZ-JKFIT
  @DF-UKS Final Energy:  -129.93271474791203
    Total Energy =                       -129.9327147479120299
 Dipole X            :          0.0000000            0.0000000            0.0000000
 Dipole Y            :          0.0000000            0.0000000            0.0000000
 Dipole Z            :         -0.0985070           -0.0041234           -0.1026304
 Magnitude           :                                                    0.1026304
    Molecular point group: c2v

    Geometry (in Angstrom), charge = 0, multiplicity = 2:

       Center              X                  Y                   Z               Mass
    ------------   -----------------  -----------------  -----------------  -----------------
         O            0.000000000000     0.000000000000    -0.507638466185    15.994914619570
         N            0.000000000000     0.000000000000     0.579846533815    14.003074004430

  Charge       = 0
  Multiplicity = 2
  Basis Set: CC-PVTZ
    Blend: CC-PVTZ
  Basis Set: (CC-PVTZ AUX)
    Blend: CC-PVTZ-JKFIT

    Orbital Energies [Eh]
    ---------------------

    Alpha Occupied:

       1A1   -19.266470     2A1   -14.441214     3A1    -1.299649
       4A1    -0.681575     1B1    -0.565769     1B2    -0.540140
       5A1    -0.493075     2B1    -0.193740

    Alpha Virtual:

       2B2    -0.082906     6A1     0.242598     3B1     0.405789
       3B2     0.411217     7A1     0.443579     8A1     0.526748
       4B1     0.594239     4B2     0.602463     9A1     0.648524
       1A2     0.915399    10A1     0.917151     5B1     1.158900
       5B2     1.160116    11A1     1.171417     2A2     1.535345
      12A1     1.536619    13A1     1.696684     6B1     2.020995
       6B2     2.023580    14A1     2.242127     7B1     2.808794
       7B2     2.824194    15A1     3.080364     8B1     3.574344
       8B2     3.582707     9B1     3.768602     9B2     3.769125
      16A1     3.772048     3A2     3.774198    17A1     3.780499
      10B1     4.066932    10B2     4.067726     4A2     4.360011
      18A1     4.364554    19A1     4.399571    11B1     4.753505
      11B2     4.755592    20A1     4.962301    12B1     5.056186
      12B2     5.056313     5A2     5.654341    21A1     5.655533
       6A2     6.150364    22A1     6.152450    13B1     6.477921
      23A1     6.481051    13B2     6.481421    24A1     7.045132
      14B2     7.107127    14B1     7.108866    25A1     7.280650
      26A1    14.986792

    Beta Occupied:

       1A1   -19.255594     2A1   -14.426126     3A1    -1.279646
       4A1    -0.646895     1B2    -0.530414     1B1    -0.493720
       5A1    -0.466850

    Beta Virtual:

       2B2    -0.067790     2B1    -0.026828     6A1     0.247684
       3B2     0.416535     3B1     0.438393     7A1     0.456885
       8A1     0.535587     4B2     0.606841     4B1     0.624870
       9A1     0.667826     1A2     0.940692    10A1     0.940826
       5B2     1.162875    11A1     1.180441     5B1     1.191034
      12A1     1.559780     2A2     1.559858    13A1     1.710828
       6B2     2.027021     6B1     2.050456    14A1     2.255564
       7B2     2.836500     7B1     2.875741    15A1     3.094658
       8B2     3.589889     8B1     3.621434    16A1     3.789526
       3A2     3.796236    17A1     3.800767     9B2     3.811001
       9B1     3.811071    10B2     4.072324    10B1     4.104763
      18A1     4.404017     4A2     4.422768    19A1     4.436329
      11B2     4.759961    11B1     4.793296    20A1     4.978362
      12B2     5.081727    12B1     5.081738     5A2     5.675356
      21A1     5.675540    22A1     6.188691     6A2     6.188753
      13B2     6.485395    23A1     6.492043    13B1     6.515026
      24A1     7.063580    14B2     7.110915    14B1     7.140774
      25A1     7.295601    26A1    15.005351

    Final Occupation by Irrep:
             A1    A2    B1    B2
    DOCC [     5,    0,    1,    1 ]
    SOCC [     0,    0,    1,    0 ]
    NA   [     5,    0,    2,    1 ]
    NB   [     5,    0,    1,    1 ]

  @DF-UKS Final Energy:  -129.93271474823862

   => Energetics <=

    Nuclear Repulsion Energy =             27.2499609626983350
    One-Electron Energy =                -230.8179726668371359
    Two-Electron Energy =                  86.1124987483658799
    DFT Exchange-Correlation Energy =     -12.4772017924657153
    Empirical Dispersion Energy =           0.0000000000000000
    VV10 Nonlocal Energy =                  0.0000000000000000
    Total Energy =                       -129.9327147482386238

  UHF NO Occupations:
  HONO-2 :    5 A1 1.9995578
  HONO-1 :    1 B1 1.9992971
  HONO-0 :    2 B1 1.0000000
  LUNO+0 :    3 B1 0.0007029
  LUNO+1 :    6 A1 0.0004422
  LUNO+2 :    7 A1 0.0000956
  LUNO+3 :    2 B2 0.0000711

Computation Completed

Properties will be evaluated at   0.000000,   0.000000,   0.000000 [a0]

Properties computed using the B3LYP density matrix

 Multipole Moments:

 ------------------------------------------------------------------------------------
     Multipole            Electronic (a.u.)      Nuclear  (a.u.)        Total (a.u.)
 ------------------------------------------------------------------------------------

 L = 1.  Multiply by 2.5417464519 to convert [e a0] to [Debye]
 Dipole X            :          0.0000000            0.0000000            0.0000000
 Dipole Y            :          0.0000000            0.0000000            0.0000000
 Dipole Z            :         -0.0985070           -0.0041234           -0.1026304
 Magnitude           :                                                    0.1026304

 L = 2.  Multiply by 1.3450342976 to convert [e a0^2] to [Debye ang]
 Quadrupole XX       :         -7.8413790            0.0000000           -7.8413790
 Quadrupole XY       :          0.0000000            0.0000000            0.0000000
 Quadrupole XZ       :          0.0000000            0.0000000            0.0000000
 Quadrupole YY       :         -6.9988285            0.0000000           -6.9988285
 Quadrupole YZ       :          0.0000000            0.0000000            0.0000000
 Quadrupole ZZ       :        -24.2130294           15.7667102           -8.4463192
 Traceless XX        :          5.1763666           -5.2555701           -0.0792034
 Traceless YY        :          6.0189171           -5.2555701            0.7633471
 Traceless ZZ        :        -11.1952838           10.5111401           -0.6841437

 ------------------------------------------------------------------------------------
  ==> Computing MBIS Charges <==

  Electron Count from Grid (Expected Number): 15.00000 (15.00000)
  Difference:  0.00000

  MBIS Charges: (a.u.)
   Center  Symbol  Z      Pop.       Charge
      1       O    8    8.007213   -0.007213
      2       N    7    6.992788    0.007212

  MBIS Dipoles: [e a0]
   Center  Symbol  Z        X           Y           Z
      1       O    8    0.000000   -0.000000    0.066269
      2       N    7    0.000000   -0.000000   -0.183721

  MBIS Quadrupoles: [e a0^2]
   Center  Symbol  Z      XX        XY        XZ        YY        YZ        ZZ
      1       O    8   -3.6406   -0.0000    0.0000   -3.3802    0.0000   -3.7127
      2       N    7   -4.2008   -0.0000    0.0000   -3.6186    0.0000   -4.2059

  MBIS Octupoles: [e a0^3]
   Center  Symbol  Z      XXX       XXY       XXZ       XYY       XYZ       XZZ       YYY       YYZ       YZZ       ZZZ
      1       O    8    0.0000   -0.0000    0.1417    0.0000   -0.0000    0.0000   -0.0000    0.0826    0.0000    0.0495
      2       N    7    0.0000   -0.0000   -0.3548    0.0000    0.0000    0.0000   -0.0000   -0.0840   -0.0000   -0.0914

  MBIS Radial Moments:
   Center  Symbol  Z      [a0^2]      [a0^3]      [a0^4]
      1       O    8   10.733449   19.604074   43.028795
      2       N    7   12.025331   25.202852   63.057050

  MBIS Valence Widths: [a0]
   Center  Symbol  Z     Width
      1       O    8    0.375593
      2       N    7    0.435290

*** tstop() called on Mac.lan at Sun Aug 10 17:19:41 2025
Module time:
	user time   =       3.26 seconds =       0.05 minutes
	system time =       2.31 seconds =       0.04 minutes
	total time  =          0 seconds =       0.00 minutes
Total time:
	user time   =      17.87 seconds =       0.30 minutes
	system time =       4.18 seconds =       0.07 minutes
	total time  =          2 seconds =       0.03 minutes

    Psi4 stopped on: Sunday, 10 August 2025 05:19PM
    Psi4 wall time for execution: 0:00:02.13

*** Psi4 exiting successfully. Buy a developer a beer!
