                               Psi4 1.9.1 release

  ==> Input File <==

--------------------------------------------------------------------------
molecule {
0 1
N           0.000000           0.000000           0.000000
N           0.000000           0.000000           1.236094
}

set {
basis              cc-pvtz
reference          uks
maxiter            500
DAMPING_PERCENTAGE 1
E_CONVERGENCE      1.0E-8
D_CONVERGENCE      1.0E-8
DIIS_MAX_VECS      400
MBIS_MAXITER       8000
guess              read
}

E, wfn = energy('b3lyp', restart_file='last_wfn', return_wfn=True)
properties('b3lyp','MBIS_CHARGES', wfn=wfn)
wfn.to_file('last_wfn')
--------------------------------------------------------------------------

    Molecular point group: d2h
  Charge       = 0
  Multiplicity = 1
  Basis Set: CC-PVTZ
    Blend: CC-PVTZ
  Basis Set: (CC-PVTZ AUX)
    Blend: CC-PVTZ-JKFIT
  @DF-UKS Final Energy:  -109.52564497125491
    Total Energy =                       -109.5256449712549056
 Dipole X            :          0.0000000            0.0000000            0.0000000
 Dipole Y            :          0.0000000            0.0000000            0.0000000
 Dipole Z            :          0.0000000           -0.0000000           -0.0000000
 Magnitude           :                                                    0.0000000
    Molecular point group: d2h

    Geometry (in Angstrom), charge = 0, multiplicity = 1:

       Center              X                  Y                   Z               Mass
    ------------   -----------------  -----------------  -----------------  -----------------
         N            0.000000000000     0.000000000000    -0.618047000000    14.003074004430
         N            0.000000000000     0.000000000000     0.618047000000    14.003074004430

  Charge       = 0
  Multiplicity = 1
  Basis Set: CC-PVTZ
    Blend: CC-PVTZ
  Basis Set: (CC-PVTZ AUX)
    Blend: CC-PVTZ-JKFIT

    Orbital Energies [Eh]
    ---------------------

    Alpha Occupied:

       1Ag   -14.456071     1B1u  -14.455440     2Ag    -1.050509
       2B1u   -0.591878     1B3u   -0.430406     1B2u   -0.430406
       3Ag    -0.427403

    Alpha Virtual:

       1B2g   -0.085355     1B3g   -0.085355     3B1u    0.257691
       2B2u    0.404042     2B3u    0.404042     4Ag     0.425192
       5Ag     0.481918     4B1u    0.516753     2B2g    0.517449
       2B3g    0.517449     5B1u    0.846451     1B1g    0.846891
       6Ag     0.846891     3B3u    1.013726     3B2u    1.013726
       1Au     1.217000     6B1u    1.217000     3B2g    1.648526
       3B3g    1.648526     7Ag     1.660450     7B1u    1.711980
       4B2u    2.723536     4B3u    2.723536     8Ag     2.857429
       4B3g    2.973045     4B2g    2.973045     2B1g    3.445081
       9Ag     3.445082     8B1u    3.503243     5B3u    3.521951
       5B2u    3.521951     6B2u    3.670480     6B3u    3.670480
      10Ag     3.787005     5B3g    3.984250     5B2g    3.984250
       9B1u    4.325902     3B1g    4.333155    11Ag     4.333158
       2Au     4.416799    10B1u    4.416801     6B2g    4.569341
       6B3g    4.569341     3Au     4.671850    11B1u    4.671852
       7B3u    4.803366     7B2u    4.803366    12B1u    5.282107
      12Ag     5.314199    13Ag     5.734501     7B2g    5.865140
       7B3g    5.865140    13B1u   11.809432

    Beta Occupied:

       1Ag   -14.456071     1B1u  -14.455440     2Ag    -1.050509
       2B1u   -0.591878     1B3u   -0.430406     1B2u   -0.430406
       3Ag    -0.427403

    Beta Virtual:

       1B2g   -0.085355     1B3g   -0.085355     3B1u    0.257691
       2B2u    0.404042     2B3u    0.404042     4Ag     0.425192
       5Ag     0.481918     4B1u    0.516753     2B2g    0.517449
       2B3g    0.517449     5B1u    0.846451     1B1g    0.846891
       6Ag     0.846891     3B3u    1.013726     3B2u    1.013726
       1Au     1.217000     6B1u    1.217000     3B2g    1.648526
       3B3g    1.648526     7Ag     1.660450     7B1u    1.711980
       4B2u    2.723536     4B3u    2.723536     8Ag     2.857429
       4B3g    2.973045     4B2g    2.973045     2B1g    3.445081
       9Ag     3.445082     8B1u    3.503243     5B3u    3.521951
       5B2u    3.521951     6B2u    3.670480     6B3u    3.670480
      10Ag     3.787005     5B3g    3.984250     5B2g    3.984250
       9B1u    4.325902     3B1g    4.333155    11Ag     4.333158
       2Au     4.416799    10B1u    4.416801     6B2g    4.569341
       6B3g    4.569341     3Au     4.671850    11B1u    4.671852
       7B3u    4.803366     7B2u    4.803366    12B1u    5.282107
      12Ag     5.314199    13Ag     5.734501     7B2g    5.865140
       7B3g    5.865140    13B1u   11.809432

    Final Occupation by Irrep:
             Ag   B1g   B2g   B3g    Au   B1u   B2u   B3u
    DOCC [     3,    0,    0,    0,    0,    2,    1,    1 ]
    SOCC [     0,    0,    0,    0,    0,    0,    0,    0 ]
    NA   [     3,    0,    0,    0,    0,    2,    1,    1 ]
    NB   [     3,    0,    0,    0,    0,    2,    1,    1 ]

  @DF-UKS Final Energy:  -109.52564497154241

   => Energetics <=

    Nuclear Repulsion Energy =             20.9771128432222831
    One-Electron Energy =                -189.4318008193533274
    Two-Electron Energy =                  69.8893841511430196
    DFT Exchange-Correlation Energy =     -10.9603411465543665
    Empirical Dispersion Energy =           0.0000000000000000
    VV10 Nonlocal Energy =                  0.0000000000000000
    Total Energy =                       -109.5256449715424054

  UHF NO Occupations:
  HONO-2 :    1B3u 2.0000000
  HONO-1 :    2B1u 2.0000000
  HONO-0 :    3 Ag 2.0000000
  LUNO+0 :    4 Ag 0.0000000
  LUNO+1 :    5 Ag 0.0000000
  LUNO+2 :    3B1u 0.0000000
  LUNO+3 :    6 Ag 0.0000000

Computation Completed

Properties will be evaluated at   0.000000,   0.000000,   0.000000 [a0]

Properties computed using the B3LYP density matrix

 Multipole Moments:

 ------------------------------------------------------------------------------------
     Multipole            Electronic (a.u.)      Nuclear  (a.u.)        Total (a.u.)
 ------------------------------------------------------------------------------------

 L = 1.  Multiply by 2.5417464519 to convert [e a0] to [Debye]
 Dipole X            :          0.0000000            0.0000000            0.0000000
 Dipole Y            :          0.0000000            0.0000000            0.0000000
 Dipole Z            :          0.0000000           -0.0000000           -0.0000000
 Magnitude           :                                                    0.0000000

 L = 2.  Multiply by 1.3450342976 to convert [e a0^2] to [Debye ang]
 Quadrupole XX       :         -7.8303529            0.0000000           -7.8303529
 Quadrupole XY       :          0.0000000            0.0000000            0.0000000
 Quadrupole XZ       :          0.0000000            0.0000000            0.0000000
 Quadrupole YY       :         -7.8303529            0.0000000           -7.8303529
 Quadrupole YZ       :          0.0000000            0.0000000            0.0000000
 Quadrupole ZZ       :        -27.8222333           19.0971595           -8.7250737
 Traceless XX        :          6.6639601           -6.3657198            0.2982403
 Traceless YY        :          6.6639601           -6.3657198            0.2982403
 Traceless ZZ        :        -13.3279202           12.7314397           -0.5964805

 ------------------------------------------------------------------------------------
  ==> Computing MBIS Charges <==

  Electron Count from Grid (Expected Number): 14.00000 (14.00000)
  Difference:  0.00000

  MBIS Charges: (a.u.)
   Center  Symbol  Z      Pop.       Charge
      1       N    7    7.000000   -0.000000
      2       N    7    7.000000   -0.000000

  MBIS Dipoles: [e a0]
   Center  Symbol  Z        X           Y           Z
      1       N    7   -0.000000   -0.000000    0.030136
      2       N    7    0.000000    0.000000   -0.030136

  MBIS Quadrupoles: [e a0^2]
   Center  Symbol  Z      XX        XY        XZ        YY        YZ        ZZ
      1       N    7   -3.9152    0.0000   -0.0000   -3.9152   -0.0000   -4.2921
      2       N    7   -3.9152    0.0000    0.0000   -3.9152    0.0000   -4.2921

  MBIS Octupoles: [e a0^3]
   Center  Symbol  Z      XXX       XXY       XXZ       XYY       XYZ       XZZ       YYY       YYZ       YZZ       ZZZ
      1       N    7   -0.0000   -0.0000   -0.0428   -0.0000    0.0000    0.0000   -0.0000   -0.0428    0.0000   -0.0409
      2       N    7   -0.0000   -0.0000    0.0428   -0.0000   -0.0000    0.0000   -0.0000    0.0428   -0.0000    0.0409

  MBIS Radial Moments:
   Center  Symbol  Z      [a0^2]      [a0^3]      [a0^4]
      1       N    7   12.122496   25.334299   63.096482
      2       N    7   12.122496   25.334299   63.096482

  MBIS Valence Widths: [a0]
   Center  Symbol  Z     Width
      1       N    7    0.437660
      2       N    7    0.437660

*** tstop() called on Mac.lan at Sun Aug 10 17:06:41 2025
Module time:
	user time   =       4.23 seconds =       0.07 minutes
	system time =       1.98 seconds =       0.03 minutes
	total time  =          0 seconds =       0.00 minutes
Total time:
	user time   =      16.12 seconds =       0.27 minutes
	system time =       4.25 seconds =       0.07 minutes
	total time  =          2 seconds =       0.03 minutes

    Psi4 stopped on: Sunday, 10 August 2025 05:06PM
    Psi4 wall time for execution: 0:00:01.99

*** Psi4 exiting successfully. Buy a developer a beer!
