                               Psi4 1.9.1 release

  ==> Input File <==

--------------------------------------------------------------------------
molecule {
0 1
O           0.000000           0.000000           0.000000
C           0.000000           0.000000           1.647827
}

set {
basis              cc-pvtz
reference          uks
maxiter            500
DAMPING_PERCENTAGE 1
E_CONVERGENCE      1.0E-8
D_CONVERGENCE      1.0E-8
DIIS_MAX_VECS      400
MBIS_MAXITER       8000
guess              read
}

E, wfn = energy('b3lyp', restart_file='last_wfn', return_wfn=True)
properties('b3lyp','MBIS_CHARGES', wfn=wfn)
wfn.to_file('last_wfn')
--------------------------------------------------------------------------

    Molecular point group: c2v
  Charge       = 0
  Multiplicity = 1
  Basis Set: CC-PVTZ
    Blend: CC-PVTZ
  Basis Set: (CC-PVTZ AUX)
    Blend: CC-PVTZ-JKFIT
  @DF-UKS Final Energy:  -113.13963647144952
    Total Energy =                       -113.1396364714495206
 Dipole X            :          0.0000000            0.0000000            0.0000000
 Dipole Y            :          0.0000000            0.0000000            0.0000000
 Dipole Z            :          0.6418308           -0.0033940            0.6384369
 Magnitude           :                                                    0.6384369
    Molecular point group: c2v

    Geometry (in Angstrom), charge = 0, multiplicity = 1:

       Center              X                  Y                   Z               Mass
    ------------   -----------------  -----------------  -----------------  -----------------
         O            0.000000000000     0.000000000000    -0.706339857389    15.994914619570
         C            0.000000000000     0.000000000000     0.941487142611    12.000000000000

  Charge       = 0
  Multiplicity = 1
  Basis Set: CC-PVTZ
    Blend: CC-PVTZ
  Basis Set: (CC-PVTZ AUX)
    Blend: CC-PVTZ-JKFIT

    Orbital Energies [Eh]
    ---------------------

    Alpha Occupied:

       1A1   -19.228732     2A1   -10.416785     3A1    -0.959042
       4A1    -0.598834     5A1    -0.385186     1B1    -0.359051
       1B2    -0.359051

    Alpha Virtual:

       2B2    -0.164293     2B1    -0.164293     6A1     0.003778
       7A1     0.269267     3B1     0.284622     3B2     0.284622
       8A1     0.322339     9A1     0.556529     4B2     0.598775
       4B1     0.598775     1A2     0.630173    10A1     0.630173
       5B2     0.735980     5B1     0.735980    11A1     0.943876
      12A1     1.213968     2A2     1.467867    13A1     1.467867
       6B2     1.606983     6B1     1.606983    14A1     1.754265
       7B2     1.924437     7B1     1.924437    15A1     2.283392
       8B2     2.604510     8B1     2.604510     3A2     2.629482
      16A1     2.629482     9B2     2.761676     9B1     2.761676
      17A1     2.783104    18A1     2.861244     4A2     2.861246
      10B2     3.040588    10B1     3.040588    19A1     3.137365
      11B1     3.643868    11B2     3.643868    20A1     3.670700
      21A1     4.582405    12B2     5.100484    12B1     5.100484
      22A1     5.129433     5A2     5.129435    13B2     5.323608
      13B1     5.323608    23A1     5.639618     6A2     6.166947
      24A1     6.166987    14B1     6.435232    14B2     6.435232
      25A1     6.937836    26A1     8.149157

    Beta Occupied:

       1A1   -19.228732     2A1   -10.416785     3A1    -0.959042
       4A1    -0.598834     5A1    -0.385186     1B1    -0.359051
       1B2    -0.359051

    Beta Virtual:

       2B2    -0.164293     2B1    -0.164293     6A1     0.003778
       7A1     0.269267     3B2     0.284622     3B1     0.284622
       8A1     0.322339     9A1     0.556529     4B2     0.598775
       4B1     0.598775     1A2     0.630173    10A1     0.630173
       5B2     0.735980     5B1     0.735980    11A1     0.943876
      12A1     1.213968     2A2     1.467867    13A1     1.467867
       6B2     1.606983     6B1     1.606983    14A1     1.754265
       7B2     1.924437     7B1     1.924437    15A1     2.283392
       8B2     2.604510     8B1     2.604510     3A2     2.629482
      16A1     2.629482     9B2     2.761676     9B1     2.761676
      17A1     2.783104    18A1     2.861244     4A2     2.861246
      10B2     3.040588    10B1     3.040588    19A1     3.137365
      11B1     3.643868    11B2     3.643868    20A1     3.670700
      21A1     4.582405    12B1     5.100484    12B2     5.100484
      22A1     5.129433     5A2     5.129435    13B2     5.323608
      13B1     5.323608    23A1     5.639618     6A2     6.166947
      24A1     6.166987    14B1     6.435232    14B2     6.435232
      25A1     6.937836    26A1     8.149157

    Final Occupation by Irrep:
             A1    A2    B1    B2
    DOCC [     5,    0,    1,    1 ]
    SOCC [     0,    0,    0,    0 ]
    NA   [     5,    0,    1,    1 ]
    NB   [     5,    0,    1,    1 ]

  @DF-UKS Final Energy:  -113.13963647147041

   => Energetics <=

    Nuclear Repulsion Energy =             15.4145466193720591
    One-Electron Energy =                -184.5851059219638159
    Two-Electron Energy =                  67.0139452422432100
    DFT Exchange-Correlation Energy =     -10.9830224111218673
    Empirical Dispersion Energy =           0.0000000000000000
    VV10 Nonlocal Energy =                  0.0000000000000000
    Total Energy =                       -113.1396364714704106

  UHF NO Occupations:
  HONO-2 :    3 A1 2.0000000
  HONO-1 :    4 A1 2.0000000
  HONO-0 :    5 A1 2.0000000
  LUNO+0 :    6 A1 0.0000000
  LUNO+1 :    7 A1 0.0000000
  LUNO+2 :    8 A1 0.0000000
  LUNO+3 :    9 A1 0.0000000

Computation Completed

Properties will be evaluated at   0.000000,   0.000000,   0.000000 [a0]

Properties computed using the B3LYP density matrix

 Multipole Moments:

 ------------------------------------------------------------------------------------
     Multipole            Electronic (a.u.)      Nuclear  (a.u.)        Total (a.u.)
 ------------------------------------------------------------------------------------

 L = 1.  Multiply by 2.5417464519 to convert [e a0] to [Debye]
 Dipole X            :          0.0000000            0.0000000            0.0000000
 Dipole Y            :          0.0000000            0.0000000            0.0000000
 Dipole Z            :          0.6418308           -0.0033940            0.6384369
 Magnitude           :                                                    0.6384369

 L = 2.  Multiply by 1.3450342976 to convert [e a0^2] to [Debye ang]
 Quadrupole XX       :         -8.1991409            0.0000000           -8.1991409
 Quadrupole XY       :          0.0000000            0.0000000            0.0000000
 Quadrupole XZ       :          0.0000000            0.0000000            0.0000000
 Quadrupole YY       :         -8.1991409            0.0000000           -8.1991409
 Quadrupole YZ       :          0.0000000            0.0000000            0.0000000
 Quadrupole ZZ       :        -41.6909983           33.2456001           -8.4453983
 Traceless XX        :         11.1639525          -11.0818667            0.0820858
 Traceless YY        :         11.1639525          -11.0818667            0.0820858
 Traceless ZZ        :        -22.3279050           22.1637334           -0.1641716

 ------------------------------------------------------------------------------------
  ==> Computing MBIS Charges <==

  Electron Count from Grid (Expected Number): 14.00000 (14.00000)
  Difference: -0.00000

  MBIS Charges: (a.u.)
   Center  Symbol  Z      Pop.       Charge
      1       O    8    8.305564   -0.305564
      2       C    6    5.694435    0.305565

  MBIS Dipoles: [e a0]
   Center  Symbol  Z        X           Y           Z
      1       O    8    0.000000    0.000000   -0.161133
      2       C    6    0.000000    0.000000   -0.151942

  MBIS Quadrupoles: [e a0^2]
   Center  Symbol  Z      XX        XY        XZ        YY        YZ        ZZ
      1       O    8   -4.2244   -0.0000   -0.0000   -4.2244    0.0000   -4.2061
      2       C    6   -3.9747    0.0000    0.0000   -3.9747    0.0000   -4.5516

  MBIS Octupoles: [e a0^3]
   Center  Symbol  Z      XXX       XXY       XXZ       XYY       XYZ       XZZ       YYY       YYZ       YZZ       ZZZ
      1       O    8    0.0000   -0.0000   -0.1867    0.0000    0.0000    0.0000   -0.0000   -0.1867   -0.0000   -0.5787
      2       C    6   -0.0000   -0.0000    0.0858    0.0000    0.0000    0.0000    0.0000    0.0858    0.0000    0.0117

  MBIS Radial Moments:
   Center  Symbol  Z      [a0^2]      [a0^3]      [a0^4]
      1       O    8   12.654924   24.616712   57.172305
      2       C    6   12.501073   30.279546   87.112127

  MBIS Valence Widths: [a0]
   Center  Symbol  Z     Width
      1       O    8    0.399703
      2       C    6    0.514782

*** tstop() called on Mac.lan at Sun Aug 10 17:18:59 2025
Module time:
	user time   =       3.70 seconds =       0.06 minutes
	system time =       1.84 seconds =       0.03 minutes
	total time  =          0 seconds =       0.00 minutes
Total time:
	user time   =      17.77 seconds =       0.30 minutes
	system time =       4.00 seconds =       0.07 minutes
	total time  =          2 seconds =       0.03 minutes

    Psi4 stopped on: Sunday, 10 August 2025 05:18PM
    Psi4 wall time for execution: 0:00:02.11

*** Psi4 exiting successfully. Buy a developer a beer!
