                               Psi4 1.9.1 release

  ==> Input File <==

--------------------------------------------------------------------------
molecule {
0 1
O           0.000000           0.000000           0.000000
C           0.000000           0.000000           1.544407
}

set {
basis              cc-pvtz
reference          uks
maxiter            500
DAMPING_PERCENTAGE 1
E_CONVERGENCE      1.0E-8
D_CONVERGENCE      1.0E-8
DIIS_MAX_VECS      400
MBIS_MAXITER       8000
guess              read
}

E, wfn = energy('b3lyp', restart_file='last_wfn', return_wfn=True)
properties('b3lyp','MBIS_CHARGES', wfn=wfn)
wfn.to_file('last_wfn')
--------------------------------------------------------------------------

    Molecular point group: c2v
  Charge       = 0
  Multiplicity = 1
  Basis Set: CC-PVTZ
    Blend: CC-PVTZ
  Basis Set: (CC-PVTZ AUX)
    Blend: CC-PVTZ-JKFIT
  @DF-UKS Final Energy:  -113.18967886160475
    Total Energy =                       -113.1896788616047473
 Dipole X            :          0.0000000            0.0000000            0.0000000
 Dipole Y            :          0.0000000            0.0000000            0.0000000
 Dipole Z            :          0.5201354           -0.0031809            0.5169545
 Magnitude           :                                                    0.5169545
    Molecular point group: c2v

    Geometry (in Angstrom), charge = 0, multiplicity = 1:

       Center              X                  Y                   Z               Mass
    ------------   -----------------  -----------------  -----------------  -----------------
         O            0.000000000000     0.000000000000    -0.662008948834    15.994914619570
         C            0.000000000000     0.000000000000     0.882398051166    12.000000000000

  Charge       = 0
  Multiplicity = 1
  Basis Set: CC-PVTZ
    Blend: CC-PVTZ
  Basis Set: (CC-PVTZ AUX)
    Blend: CC-PVTZ-JKFIT

    Orbital Energies [Eh]
    ---------------------

    Alpha Occupied:

       1A1   -19.233706     2A1   -10.402064     3A1    -0.986658
       4A1    -0.592651     5A1    -0.391762     1B1    -0.375975
       1B2    -0.375975

    Alpha Virtual:

       2B1    -0.147318     2B2    -0.147318     6A1     0.054319
       7A1     0.277160     3B2     0.286228     3B1     0.286228
       8A1     0.315951     9A1     0.548200     4B1     0.608427
       4B2     0.608427    10A1     0.631423     1A2     0.631423
       5B1     0.744762     5B2     0.744762    11A1     0.984788
      12A1     1.206445    13A1     1.464613     2A2     1.464613
       6B2     1.641677     6B1     1.641677    14A1     1.855358
       7B1     1.949092     7B2     1.949092    15A1     2.243052
       8B1     2.610498     8B2     2.610498     3A2     2.647300
      16A1     2.647301     9B2     2.797641     9B1     2.797641
      17A1     2.839038     4A2     2.872296    18A1     2.872297
      10B2     3.075550    10B1     3.075550    19A1     3.161921
      20A1     3.680162    11B1     3.687551    11B2     3.687551
      21A1     4.838818    12B2     5.091119    12B1     5.091119
      22A1     5.151404     5A2     5.151406    13B2     5.421400
      13B1     5.421400    23A1     5.843789     6A2     6.171002
      24A1     6.171055    14B2     6.503921    14B1     6.503921
      25A1     7.124394    26A1     8.290734

    Beta Occupied:

       1A1   -19.233706     2A1   -10.402064     3A1    -0.986658
       4A1    -0.592651     5A1    -0.391762     1B1    -0.375975
       1B2    -0.375975

    Beta Virtual:

       2B1    -0.147318     2B2    -0.147318     6A1     0.054319
       7A1     0.277160     3B2     0.286228     3B1     0.286228
       8A1     0.315951     9A1     0.548200     4B1     0.608427
       4B2     0.608427    10A1     0.631423     1A2     0.631423
       5B1     0.744762     5B2     0.744762    11A1     0.984788
      12A1     1.206445    13A1     1.464613     2A2     1.464613
       6B2     1.641677     6B1     1.641677    14A1     1.855358
       7B1     1.949092     7B2     1.949092    15A1     2.243052
       8B1     2.610498     8B2     2.610498     3A2     2.647300
      16A1     2.647301     9B2     2.797641     9B1     2.797641
      17A1     2.839038     4A2     2.872296    18A1     2.872297
      10B2     3.075550    10B1     3.075550    19A1     3.161921
      20A1     3.680162    11B1     3.687551    11B2     3.687551
      21A1     4.838818    12B2     5.091119    12B1     5.091119
      22A1     5.151404     5A2     5.151406    13B2     5.421400
      13B1     5.421400    23A1     5.843789     6A2     6.171002
      24A1     6.171055    14B2     6.503921    14B1     6.503921
      25A1     7.124394    26A1     8.290734

    Final Occupation by Irrep:
             A1    A2    B1    B2
    DOCC [     5,    0,    1,    1 ]
    SOCC [     0,    0,    0,    0 ]
    NA   [     5,    0,    1,    1 ]
    NB   [     5,    0,    1,    1 ]

  @DF-UKS Final Energy:  -113.18967886160368

   => Energetics <=

    Nuclear Repulsion Energy =             16.4467696094099551
    One-Electron Energy =                -186.6263854423229134
    Two-Electron Energy =                  68.0015814248370702
    DFT Exchange-Correlation Energy =     -11.0116444535278006
    Empirical Dispersion Energy =           0.0000000000000000
    VV10 Nonlocal Energy =                  0.0000000000000000
    Total Energy =                       -113.1896788616036815

  UHF NO Occupations:
  HONO-2 :    1 B2 2.0000000
  HONO-1 :    4 A1 2.0000000
  HONO-0 :    5 A1 2.0000000
  LUNO+0 :    6 A1 0.0000000
  LUNO+1 :    7 A1 0.0000000
  LUNO+2 :    8 A1 0.0000000
  LUNO+3 :    9 A1 0.0000000

Computation Completed

Properties will be evaluated at   0.000000,   0.000000,   0.000000 [a0]

Properties computed using the B3LYP density matrix

 Multipole Moments:

 ------------------------------------------------------------------------------------
     Multipole            Electronic (a.u.)      Nuclear  (a.u.)        Total (a.u.)
 ------------------------------------------------------------------------------------

 L = 1.  Multiply by 2.5417464519 to convert [e a0] to [Debye]
 Dipole X            :          0.0000000            0.0000000            0.0000000
 Dipole Y            :          0.0000000            0.0000000            0.0000000
 Dipole Z            :          0.5201354           -0.0031809            0.5169545
 Magnitude           :                                                    0.5169545

 L = 2.  Multiply by 1.3450342976 to convert [e a0^2] to [Debye ang]
 Quadrupole XX       :         -8.1130038            0.0000000           -8.1130038
 Quadrupole XY       :          0.0000000            0.0000000            0.0000000
 Quadrupole XZ       :          0.0000000            0.0000000            0.0000000
 Quadrupole YY       :         -8.1130038            0.0000000           -8.1130038
 Quadrupole YZ       :          0.0000000            0.0000000            0.0000000
 Quadrupole ZZ       :        -37.8469997           29.2034708           -8.6435289
 Traceless XX        :          9.9113320           -9.7344903            0.1768417
 Traceless YY        :          9.9113320           -9.7344903            0.1768417
 Traceless ZZ        :        -19.8226639           19.4689805           -0.3536834

 ------------------------------------------------------------------------------------
  ==> Computing MBIS Charges <==

  Electron Count from Grid (Expected Number): 14.00000 (14.00000)
  Difference: -0.00000

  MBIS Charges: (a.u.)
   Center  Symbol  Z      Pop.       Charge
      1       O    8    8.289311   -0.289311
      2       C    6    5.710688    0.289312

  MBIS Dipoles: [e a0]
   Center  Symbol  Z        X           Y           Z
      1       O    8    0.000000   -0.000000   -0.141407
      2       C    6   -0.000000    0.000000   -0.185998

  MBIS Quadrupoles: [e a0^2]
   Center  Symbol  Z      XX        XY        XZ        YY        YZ        ZZ
      1       O    8   -4.1448   -0.0000    0.0000   -4.1448    0.0000   -4.1598
      2       C    6   -3.9682    0.0000    0.0000   -3.9682    0.0000   -4.5689

  MBIS Octupoles: [e a0^3]
   Center  Symbol  Z      XXX       XXY       XXZ       XYY       XYZ       XZZ       YYY       YYZ       YZZ       ZZZ
      1       O    8   -0.0000    0.0000   -0.1460    0.0000   -0.0000   -0.0000   -0.0000   -0.1460   -0.0000   -0.4769
      2       C    6   -0.0000   -0.0000    0.0312   -0.0000    0.0000    0.0000    0.0000    0.0312    0.0000   -0.1207

  MBIS Radial Moments:
   Center  Symbol  Z      [a0^2]      [a0^3]      [a0^4]
      1       O    8   12.449406   24.006484   55.305981
      2       C    6   12.505291   30.198992   86.551780

  MBIS Valence Widths: [a0]
   Center  Symbol  Z     Width
      1       O    8    0.396968
      2       C    6    0.513810

*** tstop() called on Mac.lan at Sun Aug 10 17:18:46 2025
Module time:
	user time   =       3.59 seconds =       0.06 minutes
	system time =       2.19 seconds =       0.04 minutes
	total time  =          0 seconds =       0.00 minutes
Total time:
	user time   =      18.80 seconds =       0.31 minutes
	system time =       4.45 seconds =       0.07 minutes
	total time  =          2 seconds =       0.03 minutes

    Psi4 stopped on: Sunday, 10 August 2025 05:18PM
    Psi4 wall time for execution: 0:00:02.26

*** Psi4 exiting successfully. Buy a developer a beer!
