                               Psi4 1.9.1 release

  ==> Input File <==

--------------------------------------------------------------------------
molecule {
0 2
N           0.000000           0.000000           0.000000
C           0.000000           0.000000           0.697670
}

set {
basis              cc-pvtz
reference          uks
maxiter            500
DAMPING_PERCENTAGE 1
E_CONVERGENCE      1.0E-8
D_CONVERGENCE      1.0E-8
DIIS_MAX_VECS      400
MBIS_MAXITER       8000
guess              read
}

E, wfn = energy('b3lyp', restart_file='last_wfn', return_wfn=True)
properties('b3lyp','MBIS_CHARGES', wfn=wfn)
wfn.to_file('last_wfn')
--------------------------------------------------------------------------

    Molecular point group: c2v
  Charge       = 0
  Multiplicity = 2
  Basis Set: CC-PVTZ
    Blend: CC-PVTZ
  Basis Set: (CC-PVTZ AUX)
    Blend: CC-PVTZ-JKFIT
  @DF-UKS Final Energy:   -91.31526845463119
    Total Energy =                        -91.3152684546311946
 Dipole X            :          0.0000000            0.0000000            0.0000000
 Dipole Y            :          0.0000000            0.0000000            0.0000000
 Dipole Z            :          0.8187782            0.0009351            0.8197133
 Magnitude           :                                                    0.8197133
    Molecular point group: c2v

    Geometry (in Angstrom), charge = 0, multiplicity = 2:

       Center              X                  Y                   Z               Mass
    ------------   -----------------  -----------------  -----------------  -----------------
         N            0.000000000000     0.000000000000    -0.321963472418    14.003074004430
         C            0.000000000000     0.000000000000     0.375706527582    12.000000000000

  Charge       = 0
  Multiplicity = 2
  Basis Set: CC-PVTZ
    Blend: CC-PVTZ
  Basis Set: (CC-PVTZ AUX)
    Blend: CC-PVTZ-JKFIT

    Orbital Energies [Eh]
    ---------------------

    Alpha Occupied:

       1A1   -14.268984     2A1   -10.234523     3A1    -0.960234
       1B1    -0.567456     1B2    -0.567456     4A1    -0.432948
       5A1    -0.324776

    Alpha Virtual:

       2B2     0.143126     2B1     0.143126     6A1     0.191129
       7A1     0.229659     3B1     0.303815     3B2     0.303815
       8A1     0.485487     4B2     0.582356     4B1     0.582356
       1A2     0.621236     9A1     0.621236    10A1     0.849662
       5B1     1.048954     5B2     1.048954    11A1     1.163165
       2A2     1.310752    12A1     1.310752     6B1     1.460225
       6B2     1.460225    13A1     1.551804     7B2     2.000867
       7B1     2.000867    14A1     2.274029     8B2     2.604774
       8B1     2.604774    15A1     2.611476     3A2     2.800308
      16A1     2.800308     9B1     2.900741     9B2     2.900741
      17A1     2.993478     4A2     3.028511    18A1     3.028511
      10B1     3.465253    10B2     3.465253    19A1     3.680389
      11B1     3.985222    11B2     3.985222    12B2     4.240694
      12B1     4.240694     5A2     4.562645    20A1     4.562645
      21A1     4.874635    13B2     5.439925    13B1     5.439925
       6A2     5.685898    22A1     5.685898    23A1     5.943048
      14B1     6.843345    14B2     6.843345    24A1     7.244598
      25A1     7.815421    26A1    19.569323

    Beta Occupied:

       1A1   -14.265237     2A1   -10.215793     3A1    -0.948605
       1B1    -0.554037     1B2    -0.554037     4A1    -0.321589

    Beta Virtual:

       5A1    -0.209863     2B2     0.157592     2B1     0.157592
       6A1     0.198356     7A1     0.275968     3B2     0.319357
       3B1     0.319357     8A1     0.501345     4B2     0.607730
       4B1     0.607730     1A2     0.634900     9A1     0.634900
      10A1     0.895829     5B1     1.071685     5B2     1.071685
      11A1     1.180564     2A2     1.314181    12A1     1.314181
       6B1     1.471993     6B2     1.471993    13A1     1.589912
       7B2     2.023970     7B1     2.023970    14A1     2.310237
       8B2     2.624704     8B1     2.624704    15A1     2.702385
       3A2     2.835072    16A1     2.835072     9B1     2.993992
       9B2     2.993992    17A1     3.065242     4A2     3.075092
      18A1     3.075094    10B1     3.477876    10B2     3.477876
      19A1     3.706422    11B1     4.010647    11B2     4.010647
      12B2     4.244558    12B1     4.244558     5A2     4.562599
      20A1     4.562599    21A1     4.893449    13B2     5.456646
      13B1     5.456646     6A2     5.699793    22A1     5.699794
      23A1     5.958153    14B1     6.868548    14B2     6.868548
      24A1     7.293157    25A1     7.825508    26A1    19.593728

    Final Occupation by Irrep:
             A1    A2    B1    B2
    DOCC [     4,    0,    1,    1 ]
    SOCC [     1,    0,    0,    0 ]
    NA   [     5,    0,    1,    1 ]
    NB   [     4,    0,    1,    1 ]

  @DF-UKS Final Energy:   -91.31526845464069

   => Energetics <=

    Nuclear Repulsion Energy =             31.8566698412429972
    One-Electron Energy =                -184.5691900113233714
    Two-Electron Energy =                  71.9224266523238640
    DFT Exchange-Correlation Energy =     -10.5251749368841701
    Empirical Dispersion Energy =           0.0000000000000000
    VV10 Nonlocal Energy =                  0.0000000000000000
    Total Energy =                        -91.3152684546406874

  UHF NO Occupations:
  HONO-2 :    1 B2 1.9994589
  HONO-1 :    1 B1 1.9994589
  HONO-0 :    5 A1 1.0000000
  LUNO+0 :    2 B1 0.0005411
  LUNO+1 :    2 B2 0.0005411
  LUNO+2 :    6 A1 0.0001356
  LUNO+3 :    7 A1 0.0000224

Computation Completed

Properties will be evaluated at   0.000000,   0.000000,   0.000000 [a0]

Properties computed using the B3LYP density matrix

 Multipole Moments:

 ------------------------------------------------------------------------------------
     Multipole            Electronic (a.u.)      Nuclear  (a.u.)        Total (a.u.)
 ------------------------------------------------------------------------------------

 L = 1.  Multiply by 2.5417464519 to convert [e a0] to [Debye]
 Dipole X            :          0.0000000            0.0000000            0.0000000
 Dipole Y            :          0.0000000            0.0000000            0.0000000
 Dipole Z            :          0.8187782            0.0009351            0.8197133
 Magnitude           :                                                    0.8197133

 L = 2.  Multiply by 1.3450342976 to convert [e a0^2] to [Debye ang]
 Quadrupole XX       :         -6.6261016            0.0000000           -6.6261016
 Quadrupole XY       :          0.0000000            0.0000000            0.0000000
 Quadrupole XZ       :          0.0000000            0.0000000            0.0000000
 Quadrupole YY       :         -6.6261016            0.0000000           -6.6261016
 Quadrupole YZ       :          0.0000000            0.0000000            0.0000000
 Quadrupole ZZ       :        -13.1659823            5.6156984           -7.5502839
 Traceless XX        :          2.1799602           -1.8718995            0.3080608
 Traceless YY        :          2.1799602           -1.8718995            0.3080608
 Traceless ZZ        :         -4.3599205            3.7437989           -0.6161215

 ------------------------------------------------------------------------------------
  ==> Computing MBIS Charges <==

  Electron Count from Grid (Expected Number): 13.00000 (13.00000)
  Difference: -0.00000

  MBIS Charges: (a.u.)
   Center  Symbol  Z      Pop.       Charge
      1       N    7    7.614992   -0.614992
      2       C    6    5.385007    0.614993

  MBIS Dipoles: [e a0]
   Center  Symbol  Z        X           Y           Z
      1       N    7   -0.000000   -0.000000   -0.027656
      2       C    6   -0.000000   -0.000000    0.036559

  MBIS Quadrupoles: [e a0^2]
   Center  Symbol  Z      XX        XY        XZ        YY        YZ        ZZ
      1       N    7   -3.9327    0.0000   -0.0000   -3.9327   -0.0000   -4.6331
      2       C    6   -2.6934    0.0000   -0.0000   -2.6934    0.0000   -3.0851

  MBIS Octupoles: [e a0^3]
   Center  Symbol  Z      XXX       XXY       XXZ       XYY       XYZ       XZZ       YYY       YYZ       YZZ       ZZZ
      1       N    7   -0.0000   -0.0000    0.1284   -0.0000    0.0000   -0.0000   -0.0000    0.1284    0.0000    0.7885
      2       C    6   -0.0000   -0.0000   -0.1556   -0.0000    0.0000   -0.0000    0.0000   -0.1556    0.0000   -0.6426

  MBIS Radial Moments:
   Center  Symbol  Z      [a0^2]      [a0^3]      [a0^4]
      1       N    7   12.498465   25.763031   64.265621
      2       C    6    8.471933   18.161579   47.479451

  MBIS Valence Widths: [a0]
   Center  Symbol  Z     Width
      1       N    7    0.415774
      2       C    6    0.431646

*** tstop() called on Mac.lan at Sun Aug 10 17:13:43 2025
Module time:
	user time   =       6.02 seconds =       0.10 minutes
	system time =       3.41 seconds =       0.06 minutes
	total time  =          1 seconds =       0.02 minutes
Total time:
	user time   =      30.27 seconds =       0.50 minutes
	system time =       5.56 seconds =       0.09 minutes
	total time  =          4 seconds =       0.07 minutes

    Psi4 stopped on: Sunday, 10 August 2025 05:13PM
    Psi4 wall time for execution: 0:00:03.60

*** Psi4 exiting successfully. Buy a developer a beer!
