                               Psi4 1.9.1 release

  ==> Input File <==

--------------------------------------------------------------------------
molecule {
0 1
H           0.000000           0.000000           0.000000
H           0.000000           0.000000           0.868697
}

set {
basis              cc-pvtz
reference          uks
maxiter            500
DAMPING_PERCENTAGE 1
E_CONVERGENCE      1.0E-8
D_CONVERGENCE      1.0E-8
DIIS_MAX_VECS      400
MBIS_MAXITER       8000
guess              read
}

E, wfn = energy('b3lyp', restart_file='last_wfn', return_wfn=True)
properties('b3lyp','MBIS_CHARGES', wfn=wfn)
wfn.to_file('last_wfn')
--------------------------------------------------------------------------

    Molecular point group: d2h
  Charge       = 0
  Multiplicity = 1
  Basis Set: CC-PVTZ
    Blend: CC-PVTZ
  Basis Set: (CC-PVTZ AUX)
    Blend: CC-PVTZ-JKFIT
  @DF-UKS Final Energy:    -1.17182493570254
    Total Energy =                         -1.1718249357025385
 Dipole X            :          0.0000000            0.0000000            0.0000000
 Dipole Y            :          0.0000000            0.0000000            0.0000000
 Dipole Z            :          0.0000000            0.0000000            0.0000000
 Magnitude           :                                                    0.0000000
    Molecular point group: d2h

    Geometry (in Angstrom), charge = 0, multiplicity = 1:

       Center              X                  Y                   Z               Mass
    ------------   -----------------  -----------------  -----------------  -----------------
         H            0.000000000000     0.000000000000    -0.434348500000     1.007825032230
         H            0.000000000000     0.000000000000     0.434348500000     1.007825032230

  Charge       = 0
  Multiplicity = 1
  Basis Set: CC-PVTZ
    Blend: CC-PVTZ
  Basis Set: (CC-PVTZ AUX)
    Blend: CC-PVTZ-JKFIT

    Orbital Energies [Eh]
    ---------------------

    Alpha Occupied:

       1Ag    -0.410213

    Alpha Virtual:

       1B1u    0.032152     2Ag     0.204436     2B1u    0.423865
       1B3u    0.502246     1B2u    0.502246     3Ag     0.869116
       1B2g    0.909852     1B3g    0.909852     3B1u    1.328385
       4B1u    2.123114     4Ag     2.152853     1B1g    2.891474
       5Ag     2.891474     2B2u    3.010609     2B3u    3.010609
       6Ag     3.269407     1Au     3.665750     5B1u    3.665750
       2B2g    3.670535     2B3g    3.670535     3B2u    3.703158
       3B3u    3.703158     6B1u    3.996782     3B2g    4.964374
       3B3g    4.964374     7Ag     5.002718     7B1u    6.106697

    Beta Occupied:

       1Ag    -0.410213

    Beta Virtual:

       1B1u    0.032152     2Ag     0.204436     2B1u    0.423865
       1B3u    0.502246     1B2u    0.502246     3Ag     0.869116
       1B2g    0.909852     1B3g    0.909852     3B1u    1.328385
       4B1u    2.123114     4Ag     2.152853     1B1g    2.891474
       5Ag     2.891474     2B2u    3.010609     2B3u    3.010609
       6Ag     3.269407     1Au     3.665750     5B1u    3.665750
       2B2g    3.670535     2B3g    3.670535     3B2u    3.703158
       3B3u    3.703158     6B1u    3.996782     3B2g    4.964374
       3B3g    4.964374     7Ag     5.002718     7B1u    6.106697

    Final Occupation by Irrep:
             Ag   B1g   B2g   B3g    Au   B1u   B2u   B3u
    DOCC [     1,    0,    0,    0,    0,    0,    0,    0 ]
    SOCC [     0,    0,    0,    0,    0,    0,    0,    0 ]
    NA   [     1,    0,    0,    0,    0,    0,    0,    0 ]
    NB   [     1,    0,    0,    0,    0,    0,    0,    0 ]

  @DF-UKS Final Energy:    -1.17182493558174

   => Energetics <=

    Nuclear Repulsion Energy =              0.6091620100794638
    One-Electron Energy =                  -2.3481367205276342
    Two-Electron Energy =                   1.1103144602522916
    DFT Exchange-Correlation Energy =      -0.5431646853858590
    Empirical Dispersion Energy =           0.0000000000000000
    VV10 Nonlocal Energy =                  0.0000000000000000
    Total Energy =                         -1.1718249355817378

  UHF NO Occupations:
  HONO-0 :    1 Ag 2.0000000
  LUNO+0 :    2 Ag 0.0000000
  LUNO+1 :    3 Ag 0.0000000
  LUNO+2 :    3B3u 0.0000000
  LUNO+3 :    2B3u 0.0000000

Computation Completed

Properties will be evaluated at   0.000000,   0.000000,   0.000000 [a0]

Properties computed using the B3LYP density matrix

 Multipole Moments:

 ------------------------------------------------------------------------------------
     Multipole            Electronic (a.u.)      Nuclear  (a.u.)        Total (a.u.)
 ------------------------------------------------------------------------------------

 L = 1.  Multiply by 2.5417464519 to convert [e a0] to [Debye]
 Dipole X            :          0.0000000            0.0000000            0.0000000
 Dipole Y            :          0.0000000            0.0000000            0.0000000
 Dipole Z            :          0.0000000            0.0000000            0.0000000
 Magnitude           :                                                    0.0000000

 L = 2.  Multiply by 1.3450342976 to convert [e a0^2] to [Debye ang]
 Quadrupole XX       :         -1.6955338            0.0000000           -1.6955338
 Quadrupole XY       :          0.0000000            0.0000000            0.0000000
 Quadrupole XZ       :          0.0000000            0.0000000            0.0000000
 Quadrupole YY       :         -1.6955338            0.0000000           -1.6955338
 Quadrupole YZ       :          0.0000000            0.0000000            0.0000000
 Quadrupole ZZ       :         -2.4964616            1.3474243           -1.1490373
 Traceless XX        :          0.2669760           -0.4491414           -0.1821655
 Traceless YY        :          0.2669760           -0.4491414           -0.1821655
 Traceless ZZ        :         -0.5339519            0.8982829            0.3643310

 ------------------------------------------------------------------------------------
  ==> Computing MBIS Charges <==

  Electron Count from Grid (Expected Number):  2.00000 ( 2.00000)
  Difference:  0.00000

  MBIS Charges: (a.u.)
   Center  Symbol  Z      Pop.       Charge
      1       H    1    1.000000   -0.000000
      2       H    1    1.000000   -0.000000

  MBIS Dipoles: [e a0]
   Center  Symbol  Z        X           Y           Z
      1       H    1   -0.000000   -0.000000   -0.109014
      2       H    1   -0.000000   -0.000000    0.109014

  MBIS Quadrupoles: [e a0^2]
   Center  Symbol  Z      XX        XY        XZ        YY        YZ        ZZ
      1       H    1   -0.8478    0.0000    0.0000   -0.8478    0.0000   -0.7535
      2       H    1   -0.8478    0.0000   -0.0000   -0.8478   -0.0000   -0.7535

  MBIS Octupoles: [e a0^3]
   Center  Symbol  Z      XXX       XXY       XXZ       XYY       XYZ       XZZ       YYY       YYZ       YZZ       ZZZ
      1       H    1    0.0000   -0.0000   -0.0739   -0.0000   -0.0000   -0.0000   -0.0000   -0.0739   -0.0000   -0.1152
      2       H    1    0.0000   -0.0000    0.0739   -0.0000    0.0000   -0.0000   -0.0000    0.0739   -0.0000    0.1152

  MBIS Radial Moments:
   Center  Symbol  Z      [a0^2]      [a0^3]      [a0^4]
      1       H    1    2.449010    5.593746   15.452227
      2       H    1    2.449010    5.593746   15.452227

  MBIS Valence Widths: [a0]
   Center  Symbol  Z     Width
      1       H    1    0.450826
      2       H    1    0.450826

*** tstop() called on Mac.lan at Sun Aug 10 16:59:44 2025
Module time:
	user time   =       0.58 seconds =       0.01 minutes
	system time =       1.40 seconds =       0.02 minutes
	total time  =          0 seconds =       0.00 minutes
Total time:
	user time   =       1.50 seconds =       0.02 minutes
	system time =       3.61 seconds =       0.06 minutes
	total time  =          0 seconds =       0.00 minutes

    Psi4 stopped on: Sunday, 10 August 2025 04:59PM
    Psi4 wall time for execution: 0:00:00.79

*** Psi4 exiting successfully. Buy a developer a beer!
