                               Psi4 1.9.1 release

  ==> Input File <==

--------------------------------------------------------------------------
molecule {
0 3
O           0.000000           0.000000           0.000000
O           0.000000           0.000000           1.698002
}

set {
basis              cc-pvtz
reference          uks
maxiter            500
DAMPING_PERCENTAGE 1
E_CONVERGENCE      1.0E-8
D_CONVERGENCE      1.0E-8
DIIS_MAX_VECS      400
MBIS_MAXITER       8000
guess              read
}

E, wfn = energy('b3lyp', restart_file='last_wfn', return_wfn=True)
properties('b3lyp','MBIS_CHARGES', wfn=wfn)
wfn.to_file('last_wfn')
--------------------------------------------------------------------------

    Molecular point group: d2h
  Charge       = 0
  Multiplicity = 3
  Basis Set: CC-PVTZ
    Blend: CC-PVTZ
  Basis Set: (CC-PVTZ AUX)
    Blend: CC-PVTZ-JKFIT
  @DF-UKS Final Energy:  -150.24610532191269
    Total Energy =                       -150.2461053219127223
 Dipole X            :          0.0000000            0.0000000            0.0000000
 Dipole Y            :          0.0000000            0.0000000            0.0000000
 Dipole Z            :          0.0000000            0.0000000            0.0000000
 Magnitude           :                                                    0.0000000
    Molecular point group: d2h

    Geometry (in Angstrom), charge = 0, multiplicity = 3:

       Center              X                  Y                   Z               Mass
    ------------   -----------------  -----------------  -----------------  -----------------
         O            0.000000000000     0.000000000000    -0.849001000000    15.994914619570
         O            0.000000000000     0.000000000000     0.849001000000    15.994914619570

  Charge       = 0
  Multiplicity = 3
  Basis Set: CC-PVTZ
    Blend: CC-PVTZ
  Basis Set: (CC-PVTZ AUX)
    Blend: CC-PVTZ-JKFIT

    Orbital Energies [Eh]
    ---------------------

    Alpha Occupied:

       1Ag   -19.322092     1B1u  -19.322062     2Ag    -1.087301
       2B1u   -0.954995     3Ag    -0.484358     1B3u   -0.477425
       1B2u   -0.477425     1B2g   -0.403724     1B3g   -0.403724

    Alpha Virtual:

       3B1u   -0.175589     4B1u    0.486397     2B2u    0.493284
       2B3u    0.493284     4Ag     0.591040     2B3g    0.601163
       2B2g    0.601163     5Ag     0.697715     5B1u    1.075040
       3B3u    1.190334     3B2u    1.190334     1B1g    1.324434
       6Ag     1.324434     7Ag     1.420838     6B1u    1.457595
       1Au     1.457596     3B2g    1.786702     3B3g    1.786702
       7B1u    2.269374     8Ag     3.355917     4B2u    3.421355
       4B3u    3.421355     4B3g    3.514918     4B2g    3.514918
       8B1u    3.830821     5B2u    4.778612     5B3u    4.778612
       9Ag     4.796004    10Ag     4.936575     2B1g    4.936577
       6B2u    5.004917     6B3u    5.004917     5B2g    5.017424
       5B3g    5.017424     2Au     5.079185     9B1u    5.079185
       6B3g    5.287556     6B2g    5.287556    10B1u    5.524184
       7B2u    5.984403     7B3u    5.984403     3B1g    5.987471
      11Ag     5.987490     3Au     6.083480    11B1u    6.083495
      12Ag     6.230048     7B2g    6.441899     7B3g    6.441899
      12B1u    7.083729    13Ag     7.110592    13B1u    7.832271

    Beta Occupied:

       1Ag   -19.292732     1B1u  -19.292657     2Ag    -1.015150
       2B1u   -0.866436     3Ag    -0.456750     1B3u   -0.364898
       1B2u   -0.364898

    Beta Virtual:

       1B2g   -0.220506     1B3g   -0.220506     3B1u   -0.140696
       4B1u    0.499526     2B2u    0.535882     2B3u    0.535882
       4Ag     0.607117     2B3g    0.639146     2B2g    0.639146
       5Ag     0.718073     5B1u    1.105068     3B3u    1.213404
       3B2u    1.213404     1B1g    1.373756     6Ag     1.373757
       7Ag     1.446220     1Au     1.513857     6B1u    1.513857
       3B2g    1.820350     3B3g    1.820350     7B1u    2.294244
       8Ag     3.374006     4B2u    3.494542     4B3u    3.494542
       4B3g    3.589981     4B2g    3.589981     8B1u    3.859385
       5B2u    4.815081     5B3u    4.815081     9Ag     4.830782
      10Ag     4.985517     2B1g    4.985520     6B2u    5.077496
       6B3u    5.077496     5B2g    5.090300     5B3g    5.090300
       9B1u    5.129392     2Au     5.129393     6B3g    5.326329
       6B2g    5.326329    10B1u    5.555968     7B2u    6.046253
       7B3u    6.046253     3B1g    6.094648    11Ag     6.094666
       3Au     6.189684    11B1u    6.189699    12Ag     6.258615
       7B2g    6.499072     7B3g    6.499072    12B1u    7.106723
      13Ag     7.172520    13B1u    7.891114

    Final Occupation by Irrep:
             Ag   B1g   B2g   B3g    Au   B1u   B2u   B3u
    DOCC [     3,    0,    0,    0,    0,    2,    1,    1 ]
    SOCC [     0,    0,    1,    1,    0,    0,    0,    0 ]
    NA   [     3,    0,    1,    1,    0,    2,    1,    1 ]
    NB   [     3,    0,    0,    0,    0,    2,    1,    1 ]

  @DF-UKS Final Energy:  -150.24610532177002

   => Energetics <=

    Nuclear Repulsion Energy =             19.9454072980361694
    One-Electron Energy =                -246.0360006054195310
    Two-Electron Energy =                  89.4180854147469404
    DFT Exchange-Correlation Energy =     -13.5735974291336028
    Empirical Dispersion Energy =           0.0000000000000000
    VV10 Nonlocal Energy =                  0.0000000000000000
    Total Energy =                       -150.2461053217700169

  UHF NO Occupations:
  HONO-2 :    1B2u 1.9976096
  HONO-1 :    1B3g 1.0000000
  HONO-0 :    1B2g 1.0000000
  LUNO+0 :    2B2u 0.0023904
  LUNO+1 :    2B3u 0.0023904
  LUNO+2 :    3B1u 0.0004704
  LUNO+3 :    4 Ag 0.0003345

Computation Completed

Properties will be evaluated at   0.000000,   0.000000,   0.000000 [a0]

Properties computed using the B3LYP density matrix

 Multipole Moments:

 ------------------------------------------------------------------------------------
     Multipole            Electronic (a.u.)      Nuclear  (a.u.)        Total (a.u.)
 ------------------------------------------------------------------------------------

 L = 1.  Multiply by 2.5417464519 to convert [e a0] to [Debye]
 Dipole X            :          0.0000000            0.0000000            0.0000000
 Dipole Y            :          0.0000000            0.0000000            0.0000000
 Dipole Z            :          0.0000000            0.0000000            0.0000000
 Magnitude           :                                                    0.0000000

 L = 2.  Multiply by 1.3450342976 to convert [e a0^2] to [Debye ang]
 Quadrupole XX       :         -7.8013218            0.0000000           -7.8013218
 Quadrupole XY       :          0.0000000            0.0000000            0.0000000
 Quadrupole XZ       :          0.0000000            0.0000000            0.0000000
 Quadrupole YY       :         -7.8013218            0.0000000           -7.8013218
 Quadrupole YZ       :          0.0000000            0.0000000            0.0000000
 Quadrupole ZZ       :        -48.1991357           41.1845306           -7.0146050
 Traceless XX        :         13.4659379          -13.7281769           -0.2622389
 Traceless YY        :         13.4659379          -13.7281769           -0.2622389
 Traceless ZZ        :        -26.9318759           27.4563537            0.5244779

 ------------------------------------------------------------------------------------
  ==> Computing MBIS Charges <==

  Electron Count from Grid (Expected Number): 16.00000 (16.00000)
  Difference: -0.00000

  MBIS Charges: (a.u.)
   Center  Symbol  Z      Pop.       Charge
      1       O    8    8.000000    0.000000
      2       O    8    8.000000    0.000000

  MBIS Dipoles: [e a0]
   Center  Symbol  Z        X           Y           Z
      1       O    8   -0.000000   -0.000000   -0.050980
      2       O    8    0.000000    0.000000    0.050980

  MBIS Quadrupoles: [e a0^2]
   Center  Symbol  Z      XX        XY        XZ        YY        YZ        ZZ
      1       O    8   -3.9007   -0.0000    0.0000   -3.9007   -0.0000   -3.6709
      2       O    8   -3.9007   -0.0000   -0.0000   -3.9007    0.0000   -3.6709

  MBIS Octupoles: [e a0^3]
   Center  Symbol  Z      XXX       XXY       XXZ       XYY       XYZ       XZZ       YYY       YYZ       YZZ       ZZZ
      1       O    8   -0.0000   -0.0000   -0.1080   -0.0000   -0.0000   -0.0000   -0.0000   -0.1080   -0.0000   -0.4410
      2       O    8   -0.0000   -0.0000    0.1080   -0.0000    0.0000   -0.0000   -0.0000    0.1080   -0.0000    0.4410

  MBIS Radial Moments:
   Center  Symbol  Z      [a0^2]      [a0^3]      [a0^4]
      1       O    8   11.472204   21.819264   49.746512
      2       O    8   11.472204   21.819264   49.746512

  MBIS Valence Widths: [a0]
   Center  Symbol  Z     Width
      1       O    8    0.388907
      2       O    8    0.388907

*** tstop() called on Mac.lan at Sun Aug 10 17:02:25 2025
Module time:
	user time   =       3.21 seconds =       0.05 minutes
	system time =       2.59 seconds =       0.04 minutes
	total time  =          0 seconds =       0.00 minutes
Total time:
	user time   =      15.19 seconds =       0.25 minutes
	system time =       4.81 seconds =       0.08 minutes
	total time  =          2 seconds =       0.03 minutes

    Psi4 stopped on: Sunday, 10 August 2025 05:02PM
    Psi4 wall time for execution: 0:00:01.97

*** Psi4 exiting successfully. Buy a developer a beer!
