                               Psi4 1.9.1 release

  ==> Input File <==

--------------------------------------------------------------------------
molecule {
0 3
O           0.000000           0.000000           0.000000
O           0.000000           0.000000           0.900679
}

set {
basis              cc-pvtz
reference          uks
maxiter            500
DAMPING_PERCENTAGE 1
E_CONVERGENCE      1.0E-8
D_CONVERGENCE      1.0E-8
DIIS_MAX_VECS      400
MBIS_MAXITER       8000
guess              read
}

E, wfn = energy('b3lyp', restart_file='last_wfn', return_wfn=True)
properties('b3lyp','MBIS_CHARGES', wfn=wfn)
wfn.to_file('last_wfn')
--------------------------------------------------------------------------

    Molecular point group: d2h
  Charge       = 0
  Multiplicity = 3
  Basis Set: CC-PVTZ
    Blend: CC-PVTZ
  Basis Set: (CC-PVTZ AUX)
    Blend: CC-PVTZ-JKFIT
  @DF-UKS Final Energy:  -150.08038619221901
    Total Energy =                       -150.0803861922190094
 Dipole X            :          0.0000000            0.0000000            0.0000000
 Dipole Y            :          0.0000000            0.0000000            0.0000000
 Dipole Z            :          0.0000000            0.0000000            0.0000000
 Magnitude           :                                                    0.0000000
    Molecular point group: d2h

    Geometry (in Angstrom), charge = 0, multiplicity = 3:

       Center              X                  Y                   Z               Mass
    ------------   -----------------  -----------------  -----------------  -----------------
         O            0.000000000000     0.000000000000    -0.450339500000    15.994914619570
         O            0.000000000000     0.000000000000     0.450339500000    15.994914619570

  Charge       = 0
  Multiplicity = 3
  Basis Set: CC-PVTZ
    Blend: CC-PVTZ
  Basis Set: (CC-PVTZ AUX)
    Blend: CC-PVTZ-JKFIT

    Orbital Energies [Eh]
    ---------------------

    Alpha Occupied:

       1Ag   -19.250348     1B1u  -19.246639     2Ag    -1.623498
       2B1u   -0.744456     1B3u   -0.724140     1B2u   -0.724140
       3Ag    -0.609574     1B2g   -0.163400     1B3g   -0.163400

    Alpha Virtual:

       3B1u    0.341454     2B2u    0.446479     2B3u    0.446479
       4Ag     0.498558     2B3g    0.635239     2B2g    0.635239
       5Ag     0.650319     4B1u    0.983713     1B1g    1.127121
       6Ag     1.127121     5B1u    1.195697     3B2u    1.522683
       3B3u    1.522683     6B1u    1.738597     1Au     1.738597
       7Ag     2.149074     3B3g    2.263285     3B2g    2.263285
       7B1u    2.613142     4B3u    3.389011     4B2u    3.389011
       8Ag     3.823843     4B2g    3.959229     4B3g    3.959229
       8B1u    4.375687     2B1g    4.559571     9Ag     4.559571
       5B3u    4.630078     5B2u    4.630078     6B2u    4.885220
       6B3u    4.885220     5B2g    5.372531     5B3g    5.372531
      10Ag     5.445099     6B2g    5.953330     6B3g    5.953330
       3B1g    5.984920    11Ag     5.984923     2Au     6.164237
       9B1u    6.164239    10B1u    6.295325    12Ag     6.583401
      11B1u    6.600598     3Au     6.600598     7B2u    6.850651
       7B3u    6.850651    12B1u    7.917447     7B2g    8.809763
       7B3g    8.809763    13Ag     9.134941    13B1u   24.396465

    Beta Occupied:

       1Ag   -19.221879     1B1u  -19.217896     2Ag    -1.584026
       2B1u   -0.658915     1B3u   -0.633385     1B2u   -0.633385
       3Ag    -0.559190

    Beta Virtual:

       1B2g    0.027681     1B3g    0.027681     3B1u    0.355479
       2B2u    0.472586     2B3u    0.472586     4Ag     0.506037
       5Ag     0.676207     2B3g    0.685956     2B2g    0.685956
       4B1u    1.023631     1B1g    1.165889     6Ag     1.165889
       5B1u    1.236418     3B2u    1.562896     3B3u    1.562896
       6B1u    1.805544     1Au     1.805544     7Ag     2.170598
       3B3g    2.304842     3B2g    2.304842     7B1u    2.643143
       4B3u    3.457565     4B2u    3.457565     8Ag     3.848051
       4B2g    4.030522     4B3g    4.030522     8B1u    4.422590
       9Ag     4.592657     2B1g    4.592658     5B3u    4.690094
       5B2u    4.690094     6B2u    4.923432     6B3u    4.923432
       5B2g    5.447645     5B3g    5.447645    10Ag     5.473664
       6B2g    6.000325     6B3g    6.000325     3B1g    6.085907
      11Ag     6.085910     2Au     6.267240     9B1u    6.267243
      10B1u    6.332921    12Ag     6.627872    11B1u    6.654060
       3Au     6.654061     7B2u    6.896553     7B3u    6.896553
      12B1u    7.951009     7B2g    8.857769     7B3g    8.857769
      13Ag     9.173467    13B1u   24.434684

    Final Occupation by Irrep:
             Ag   B1g   B2g   B3g    Au   B1u   B2u   B3u
    DOCC [     3,    0,    0,    0,    0,    2,    1,    1 ]
    SOCC [     0,    0,    1,    1,    0,    0,    0,    0 ]
    NA   [     3,    0,    1,    1,    0,    2,    1,    1 ]
    NB   [     3,    0,    0,    0,    0,    2,    1,    1 ]

  @DF-UKS Final Energy:  -150.08038619747708

   => Energetics <=

    Nuclear Repulsion Energy =             37.6020107972762858
    One-Electron Energy =                -279.4882398738861298
    Two-Electron Energy =                 105.9147370026494031
    DFT Exchange-Correlation Energy =     -14.1088941235166363
    Empirical Dispersion Energy =           0.0000000000000000
    VV10 Nonlocal Energy =                  0.0000000000000000
    Total Energy =                       -150.0803861974771110

  UHF NO Occupations:
  HONO-2 :    1B2u 1.9993888
  HONO-1 :    1B2g 1.0000000
  HONO-0 :    1B3g 1.0000000
  LUNO+0 :    2B2u 0.0006112
  LUNO+1 :    2B3u 0.0006112
  LUNO+2 :    3B1u 0.0005455
  LUNO+3 :    4 Ag 0.0002155

Computation Completed

Properties will be evaluated at   0.000000,   0.000000,   0.000000 [a0]

Properties computed using the B3LYP density matrix

 Multipole Moments:

 ------------------------------------------------------------------------------------
     Multipole            Electronic (a.u.)      Nuclear  (a.u.)        Total (a.u.)
 ------------------------------------------------------------------------------------

 L = 1.  Multiply by 2.5417464519 to convert [e a0] to [Debye]
 Dipole X            :          0.0000000            0.0000000            0.0000000
 Dipole Y            :          0.0000000            0.0000000            0.0000000
 Dipole Z            :          0.0000000            0.0000000            0.0000000
 Magnitude           :                                                    0.0000000

 L = 2.  Multiply by 1.3450342976 to convert [e a0^2] to [Debye ang]
 Quadrupole XX       :         -6.9052442            0.0000000           -6.9052442
 Quadrupole XY       :          0.0000000            0.0000000            0.0000000
 Quadrupole XZ       :          0.0000000            0.0000000            0.0000000
 Quadrupole YY       :         -6.9052442            0.0000000           -6.9052442
 Quadrupole YZ       :          0.0000000            0.0000000            0.0000000
 Quadrupole ZZ       :        -19.7026120           11.5877149           -8.1148971
 Traceless XX        :          4.2657893           -3.8625716            0.4032176
 Traceless YY        :          4.2657893           -3.8625716            0.4032176
 Traceless ZZ        :         -8.5315785            7.7251432           -0.8064353

 ------------------------------------------------------------------------------------
  ==> Computing MBIS Charges <==

  Electron Count from Grid (Expected Number): 16.00000 (16.00000)
  Difference: -0.00000

  MBIS Charges: (a.u.)
   Center  Symbol  Z      Pop.       Charge
      1       O    8    8.000000    0.000000
      2       O    8    8.000000    0.000000

  MBIS Dipoles: [e a0]
   Center  Symbol  Z        X           Y           Z
      1       O    8    0.000000    0.000000    0.210711
      2       O    8    0.000000   -0.000000   -0.210711

  MBIS Quadrupoles: [e a0^2]
   Center  Symbol  Z      XX        XY        XZ        YY        YZ        ZZ
      1       O    8   -3.4526    0.0000    0.0000   -3.4526   -0.0000   -3.6988
      2       O    8   -3.4526   -0.0000   -0.0000   -3.4526    0.0000   -3.6988

  MBIS Octupoles: [e a0^3]
   Center  Symbol  Z      XXX       XXY       XXZ       XYY       XYZ       XZZ       YYY       YYZ       YZZ       ZZZ
      1       O    8   -0.0000   -0.0000    0.3281    0.0000   -0.0000   -0.0000    0.0000    0.3281    0.0000    0.1811
      2       O    8   -0.0000   -0.0000   -0.3281   -0.0000    0.0000   -0.0000    0.0000   -0.3281    0.0000   -0.1811

  MBIS Radial Moments:
   Center  Symbol  Z      [a0^2]      [a0^3]      [a0^4]
      1       O    8   10.604055   19.452627   43.058000
      2       O    8   10.604055   19.452627   43.058000

  MBIS Valence Widths: [a0]
   Center  Symbol  Z     Width
      1       O    8    0.372319
      2       O    8    0.372319

*** tstop() called on Mac.lan at Sun Aug 10 17:01:10 2025
Module time:
	user time   =       3.55 seconds =       0.06 minutes
	system time =       2.22 seconds =       0.04 minutes
	total time  =          0 seconds =       0.00 minutes
Total time:
	user time   =      15.60 seconds =       0.26 minutes
	system time =       4.38 seconds =       0.07 minutes
	total time  =          2 seconds =       0.03 minutes

    Psi4 stopped on: Sunday, 10 August 2025 05:01PM
    Psi4 wall time for execution: 0:00:01.96

*** Psi4 exiting successfully. Buy a developer a beer!
