                               Psi4 1.9.1 release

  ==> Input File <==

--------------------------------------------------------------------------
molecule {
0 1
O           0.000000           0.000000           0.000000
C           0.000000           0.000000           1.523723
}

set {
basis              cc-pvtz
reference          uks
maxiter            500
DAMPING_PERCENTAGE 1
E_CONVERGENCE      1.0E-8
D_CONVERGENCE      1.0E-8
DIIS_MAX_VECS      400
MBIS_MAXITER       8000
guess              read
}

E, wfn = energy('b3lyp', restart_file='last_wfn', return_wfn=True)
properties('b3lyp','MBIS_CHARGES', wfn=wfn)
wfn.to_file('last_wfn')
--------------------------------------------------------------------------

    Molecular point group: c2v
  Charge       = 0
  Multiplicity = 1
  Basis Set: CC-PVTZ
    Blend: CC-PVTZ
  Basis Set: (CC-PVTZ AUX)
    Blend: CC-PVTZ-JKFIT
  @DF-UKS Final Energy:  -113.20004858463550
    Total Energy =                       -113.2000485846354962
 Dipole X            :          0.0000000            0.0000000            0.0000000
 Dipole Y            :          0.0000000            0.0000000            0.0000000
 Dipole Z            :          0.4944882           -0.0031383            0.4913499
 Magnitude           :                                                    0.4913499
    Molecular point group: c2v

    Geometry (in Angstrom), charge = 0, multiplicity = 1:

       Center              X                  Y                   Z               Mass
    ------------   -----------------  -----------------  -----------------  -----------------
         O            0.000000000000     0.000000000000    -0.653142767123    15.994914619570
         C            0.000000000000     0.000000000000     0.870580232877    12.000000000000

  Charge       = 0
  Multiplicity = 1
  Basis Set: CC-PVTZ
    Blend: CC-PVTZ
  Basis Set: (CC-PVTZ AUX)
    Blend: CC-PVTZ-JKFIT

    Orbital Energies [Eh]
    ---------------------

    Alpha Occupied:

       1A1   -19.234668     2A1   -10.398658     3A1    -0.993024
       4A1    -0.591482     5A1    -0.392787     1B2    -0.379747
       1B1    -0.379747

    Alpha Virtual:

       2B2    -0.143504     2B1    -0.143504     6A1     0.064779
       7A1     0.279965     3B2     0.286485     3B1     0.286485
       8A1     0.314976     9A1     0.546827     4B1     0.610010
       4B2     0.610010    10A1     0.631628     1A2     0.631628
       5B2     0.747255     5B1     0.747255    11A1     0.993126
      12A1     1.203918    13A1     1.464240     2A2     1.464240
       6B2     1.649613     6B1     1.649613    14A1     1.877020
       7B2     1.954008     7B1     1.954008    15A1     2.230894
       8B2     2.611709     8B1     2.611709     3A2     2.651618
      16A1     2.651619     9B1     2.805358     9B2     2.805358
      17A1     2.855751     4A2     2.874676    18A1     2.874677
      10B1     3.082029    10B2     3.082029    19A1     3.166175
      20A1     3.686724    11B2     3.698526    11B1     3.698526
      21A1     4.892222    12B2     5.089139    12B1     5.089139
      22A1     5.157693     5A2     5.157695    13B2     5.444697
      13B1     5.444697    23A1     5.887298     6A2     6.172109
      24A1     6.172161    14B2     6.518176    14B1     6.518176
      25A1     7.153847    26A1     8.342869

    Beta Occupied:

       1A1   -19.234668     2A1   -10.398658     3A1    -0.993024
       4A1    -0.591482     5A1    -0.392787     1B2    -0.379747
       1B1    -0.379747

    Beta Virtual:

       2B2    -0.143504     2B1    -0.143504     6A1     0.064779
       7A1     0.279965     3B2     0.286485     3B1     0.286485
       8A1     0.314976     9A1     0.546827     4B1     0.610010
       4B2     0.610010    10A1     0.631628     1A2     0.631628
       5B2     0.747255     5B1     0.747255    11A1     0.993126
      12A1     1.203918    13A1     1.464240     2A2     1.464240
       6B2     1.649613     6B1     1.649613    14A1     1.877020
       7B2     1.954008     7B1     1.954008    15A1     2.230894
       8B2     2.611709     8B1     2.611709     3A2     2.651618
      16A1     2.651619     9B1     2.805358     9B2     2.805358
      17A1     2.855751     4A2     2.874676    18A1     2.874677
      10B1     3.082029    10B2     3.082029    19A1     3.166175
      20A1     3.686724    11B2     3.698526    11B1     3.698526
      21A1     4.892222    12B2     5.089139    12B1     5.089139
      22A1     5.157693     5A2     5.157695    13B2     5.444697
      13B1     5.444697    23A1     5.887298     6A2     6.172109
      24A1     6.172161    14B2     6.518176    14B1     6.518176
      25A1     7.153847    26A1     8.342869

    Final Occupation by Irrep:
             A1    A2    B1    B2
    DOCC [     5,    0,    1,    1 ]
    SOCC [     0,    0,    0,    0 ]
    NA   [     5,    0,    1,    1 ]
    NB   [     5,    0,    1,    1 ]

  @DF-UKS Final Energy:  -113.20004858463167

   => Energetics <=

    Nuclear Repulsion Energy =             16.6700286811710541
    One-Electron Energy =                -187.0665853178898033
    Two-Electron Energy =                  68.2147524599297270
    DFT Exchange-Correlation Energy =     -11.0182444078426585
    Empirical Dispersion Energy =           0.0000000000000000
    VV10 Nonlocal Energy =                  0.0000000000000000
    Total Energy =                       -113.2000485846316735

  UHF NO Occupations:
  HONO-2 :    3 A1 2.0000000
  HONO-1 :    4 A1 2.0000000
  HONO-0 :    5 A1 2.0000000
  LUNO+0 :    6 A1 0.0000000
  LUNO+1 :    7 A1 0.0000000
  LUNO+2 :    8 A1 0.0000000
  LUNO+3 :    9 A1 0.0000000

Computation Completed

Properties will be evaluated at   0.000000,   0.000000,   0.000000 [a0]

Properties computed using the B3LYP density matrix

 Multipole Moments:

 ------------------------------------------------------------------------------------
     Multipole            Electronic (a.u.)      Nuclear  (a.u.)        Total (a.u.)
 ------------------------------------------------------------------------------------

 L = 1.  Multiply by 2.5417464519 to convert [e a0] to [Debye]
 Dipole X            :          0.0000000            0.0000000            0.0000000
 Dipole Y            :          0.0000000            0.0000000            0.0000000
 Dipole Z            :          0.4944882           -0.0031383            0.4913499
 Magnitude           :                                                    0.4913499

 L = 2.  Multiply by 1.3450342976 to convert [e a0^2] to [Debye ang]
 Quadrupole XX       :         -8.0938052            0.0000000           -8.0938052
 Quadrupole XY       :          0.0000000            0.0000000            0.0000000
 Quadrupole XZ       :          0.0000000            0.0000000            0.0000000
 Quadrupole YY       :         -8.0938052            0.0000000           -8.0938052
 Quadrupole YZ       :          0.0000000            0.0000000            0.0000000
 Quadrupole ZZ       :        -37.1076041           28.4264740           -8.6811301
 Traceless XX        :          9.6712663           -9.4754913            0.1957750
 Traceless YY        :          9.6712663           -9.4754913            0.1957750
 Traceless ZZ        :        -19.3425326           18.9509827           -0.3915499

 ------------------------------------------------------------------------------------
  ==> Computing MBIS Charges <==

  Electron Count from Grid (Expected Number): 14.00000 (14.00000)
  Difference: -0.00000

  MBIS Charges: (a.u.)
   Center  Symbol  Z      Pop.       Charge
      1       O    8    8.285161   -0.285161
      2       C    6    5.714838    0.285162

  MBIS Dipoles: [e a0]
   Center  Symbol  Z        X           Y           Z
      1       O    8    0.000000   -0.000000   -0.137095
      2       C    6   -0.000000    0.000000   -0.192655

  MBIS Quadrupoles: [e a0^2]
   Center  Symbol  Z      XX        XY        XZ        YY        YZ        ZZ
      1       O    8   -4.1266   -0.0000    0.0000   -4.1266   -0.0000   -4.1489
      2       C    6   -3.9672    0.0000    0.0000   -3.9672    0.0000   -4.5741

  MBIS Octupoles: [e a0^3]
   Center  Symbol  Z      XXX       XXY       XXZ       XYY       XYZ       XZZ       YYY       YYZ       YZZ       ZZZ
      1       O    8   -0.0000    0.0000   -0.1375   -0.0000    0.0000   -0.0000   -0.0000   -0.1375   -0.0000   -0.4558
      2       C    6   -0.0000   -0.0000    0.0194   -0.0000    0.0000    0.0000    0.0000    0.0194    0.0000   -0.1491

  MBIS Radial Moments:
   Center  Symbol  Z      [a0^2]      [a0^3]      [a0^4]
      1       O    8   12.402172   23.869215   54.891842
      2       C    6   12.508483   30.189480   86.462483

  MBIS Valence Widths: [a0]
   Center  Symbol  Z     Width
      1       O    8    0.396339
      2       C    6    0.513596

*** tstop() called on Mac.lan at Sun Aug 10 17:18:43 2025
Module time:
	user time   =       3.83 seconds =       0.06 minutes
	system time =       1.79 seconds =       0.03 minutes
	total time  =          0 seconds =       0.00 minutes
Total time:
	user time   =      17.56 seconds =       0.29 minutes
	system time =       3.90 seconds =       0.07 minutes
	total time  =          2 seconds =       0.03 minutes

    Psi4 stopped on: Sunday, 10 August 2025 05:18PM
    Psi4 wall time for execution: 0:00:02.07

*** Psi4 exiting successfully. Buy a developer a beer!
