                               Psi4 1.9.1 release

  ==> Input File <==

--------------------------------------------------------------------------
molecule {
0 2
O           0.000000           0.000000           0.000000
N           0.000000           0.000000           0.771764
}

set {
basis              cc-pvtz
reference          uks
maxiter            500
DAMPING_PERCENTAGE 1
E_CONVERGENCE      1.0E-8
D_CONVERGENCE      1.0E-8
DIIS_MAX_VECS      400
MBIS_MAXITER       8000
guess              read
}

E, wfn = energy('b3lyp', restart_file='last_wfn', return_wfn=True)
properties('b3lyp','MBIS_CHARGES', wfn=wfn)
wfn.to_file('last_wfn')
--------------------------------------------------------------------------

    Molecular point group: c2v
  Charge       = 0
  Multiplicity = 2
  Basis Set: CC-PVTZ
    Blend: CC-PVTZ
  Basis Set: (CC-PVTZ AUX)
    Blend: CC-PVTZ-JKFIT
  @DF-UKS Final Energy:  -129.16926733590111
    Total Energy =                       -129.1692673359011110
 Dipole X            :          0.0000000            0.0000000            0.0000000
 Dipole Y            :          0.0000000            0.0000000            0.0000000
 Dipole Z            :         -0.4848468           -0.0029263           -0.4877731
 Magnitude           :                                                    0.4877731
    Molecular point group: c2v

    Geometry (in Angstrom), charge = 0, multiplicity = 2:

       Center              X                  Y                   Z               Mass
    ------------   -----------------  -----------------  -----------------  -----------------
         O            0.000000000000     0.000000000000    -0.360259767460    15.994914619570
         N            0.000000000000     0.000000000000     0.411504232540    14.003074004430

  Charge       = 0
  Multiplicity = 2
  Basis Set: CC-PVTZ
    Blend: CC-PVTZ
  Basis Set: (CC-PVTZ AUX)
    Blend: CC-PVTZ-JKFIT

    Orbital Energies [Eh]
    ---------------------

    Alpha Occupied:

       1A1   -19.259420     2A1   -14.388915     3A1    -1.568158
       1B1    -0.768203     1B2    -0.755226     4A1    -0.663619
       5A1    -0.501503     2B1    -0.003805

    Alpha Virtual:

       2B2     0.093754     6A1     0.232879     3B1     0.351638
       3B2     0.352829     7A1     0.405473     8A1     0.528130
       4B1     0.619161     4B2     0.636522     1A2     0.883667
       9A1     0.885215    10A1     1.195995    11A1     1.292022
       5B1     1.351293     5B2     1.356337     2A2     1.646932
      12A1     1.648672    13A1     1.999162     6B1     2.054080
       6B2     2.058334     7B1     2.653194     7B2     2.659179
      14A1     2.900757    15A1     3.254138     8B1     3.687562
       8B2     3.687752    16A1     3.839957     3A2     3.949085
      17A1     3.950724     9B1     3.970734     9B2     3.976865
      10B1     4.277251    10B2     4.278930     4A2     4.357380
      18A1     4.360251    19A1     4.703659    11B2     5.017785
      11B1     5.017881    12B1     5.224840    12B2     5.224952
      20A1     6.072193     5A2     6.083439    21A1     6.085130
      13B2     6.634764    13B1     6.635756     6A2     6.648104
      22A1     6.649374    23A1     7.043113    24A1     8.048674
      14B1     8.586913    14B2     8.589361    25A1    10.275083
      26A1    24.714966

    Beta Occupied:

       1A1   -19.249680     2A1   -14.379833     3A1    -1.556275
       1B2    -0.747311     1B1    -0.712313     4A1    -0.638191
       5A1    -0.467672

    Beta Virtual:

       2B2     0.105850     2B1     0.138616     6A1     0.238797
       3B2     0.356239     3B1     0.376114     7A1     0.415601
       8A1     0.542120     4B2     0.643581     4B1     0.665222
       9A1     0.905564     1A2     0.905715    10A1     1.207701
      11A1     1.306873     5B2     1.360335     5B1     1.388645
       2A2     1.676714    12A1     1.677050    13A1     2.010183
       6B2     2.063276     6B1     2.085942     7B2     2.666707
       7B1     2.698355    14A1     2.920993    15A1     3.269398
       8B2     3.715137     8B1     3.715173    16A1     3.854498
       3A2     3.966944    17A1     3.967714     9B2     3.983616
       9B1     4.013404    10B2     4.282920    10B1     4.315013
      18A1     4.397633     4A2     4.397845    19A1     4.717202
      11B2     5.021921    11B1     5.050305    12B2     5.252002
      12B1     5.252019    20A1     6.083072     5A2     6.118619
      21A1     6.122278    13B2     6.638220    13B1     6.665986
       6A2     6.672547    22A1     6.672695    23A1     7.051159
      24A1     8.059551    14B2     8.595056    14B1     8.626009
      25A1    10.294176    26A1    24.727833

    Final Occupation by Irrep:
             A1    A2    B1    B2
    DOCC [     5,    0,    1,    1 ]
    SOCC [     0,    0,    1,    0 ]
    NA   [     5,    0,    2,    1 ]
    NB   [     5,    0,    1,    1 ]

  @DF-UKS Final Energy:  -129.16926733561914

   => Energetics <=

    Nuclear Repulsion Energy =             38.3976497964662826
    One-Electron Energy =                -250.1978607989327088
    Two-Electron Energy =                  95.5604110198308092
    DFT Exchange-Correlation Energy =     -12.9294673529835098
    Empirical Dispersion Energy =           0.0000000000000000
    VV10 Nonlocal Energy =                  0.0000000000000000
    Total Energy =                       -129.1692673356191392

  UHF NO Occupations:
  HONO-2 :    1 B1 1.9998353
  HONO-1 :    5 A1 1.9997555
  HONO-0 :    2 B1 1.0000000
  LUNO+0 :    6 A1 0.0002445
  LUNO+1 :    3 B1 0.0001647
  LUNO+2 :    7 A1 0.0000762
  LUNO+3 :    2 B2 0.0000097

Computation Completed

Properties will be evaluated at   0.000000,   0.000000,   0.000000 [a0]

Properties computed using the B3LYP density matrix

 Multipole Moments:

 ------------------------------------------------------------------------------------
     Multipole            Electronic (a.u.)      Nuclear  (a.u.)        Total (a.u.)
 ------------------------------------------------------------------------------------

 L = 1.  Multiply by 2.5417464519 to convert [e a0] to [Debye]
 Dipole X            :          0.0000000            0.0000000            0.0000000
 Dipole Y            :          0.0000000            0.0000000            0.0000000
 Dipole Z            :         -0.4848468           -0.0029263           -0.4877731
 Magnitude           :                                                    0.4877731

 L = 2.  Multiply by 1.3450342976 to convert [e a0^2] to [Debye ang]
 Quadrupole XX       :         -7.6651073            0.0000000           -7.6651073
 Quadrupole XY       :          0.0000000            0.0000000            0.0000000
 Quadrupole XZ       :          0.0000000            0.0000000            0.0000000
 Quadrupole YY       :         -6.3732641            0.0000000           -6.3732641
 Quadrupole YZ       :          0.0000000            0.0000000            0.0000000
 Quadrupole ZZ       :        -16.5023346            7.9407874           -8.5615472
 Traceless XX        :          2.5151280           -2.6469291           -0.1318011
 Traceless YY        :          3.8069712           -2.6469291            1.1600421
 Traceless ZZ        :         -6.3220992            5.2938582           -1.0282410

 ------------------------------------------------------------------------------------
  ==> Computing MBIS Charges <==

  Electron Count from Grid (Expected Number): 15.00000 (15.00000)
  Difference:  0.00000

  MBIS Charges: (a.u.)
   Center  Symbol  Z      Pop.       Charge
      1       O    8    7.757255    0.242745
      2       N    7    7.242746   -0.242746

  MBIS Dipoles: [e a0]
   Center  Symbol  Z        X           Y           Z
      1       O    8    0.000000   -0.000000    0.119672
      2       N    7   -0.000000   -0.000000   -0.253419

  MBIS Quadrupoles: [e a0^2]
   Center  Symbol  Z      XX        XY        XZ        YY        YZ        ZZ
      1       O    8   -3.0177   -0.0000    0.0000   -2.7199   -0.0000   -3.3414
      2       N    7   -4.6475   -0.0000   -0.0000   -3.6534    0.0000   -4.6288

  MBIS Octupoles: [e a0^3]
   Center  Symbol  Z      XXX       XXY       XXZ       XYY       XYZ       XZZ       YYY       YYZ       YZZ       ZZZ
      1       O    8    0.0000   -0.0000    0.2330   -0.0000   -0.0000   -0.0000   -0.0000    0.1619    0.0000    0.3838
      2       N    7    0.0000   -0.0000   -1.0329    0.0000   -0.0000   -0.0000   -0.0000   -0.3467    0.0000   -0.3869

  MBIS Radial Moments:
   Center  Symbol  Z      [a0^2]      [a0^3]      [a0^4]
      1       O    8    9.078964   15.652324   32.730686
      2       N    7   12.929594   28.336747   74.778517

  MBIS Valence Widths: [a0]
   Center  Symbol  Z     Width
      1       O    8    0.350021
      2       N    7    0.437529

*** tstop() called on Mac.lan at Sun Aug 10 17:20:22 2025
Module time:
	user time   =       3.88 seconds =       0.06 minutes
	system time =       2.50 seconds =       0.04 minutes
	total time  =          1 seconds =       0.02 minutes
Total time:
	user time   =      19.18 seconds =       0.32 minutes
	system time =       5.01 seconds =       0.08 minutes
	total time  =          3 seconds =       0.05 minutes

    Psi4 stopped on: Sunday, 10 August 2025 05:20PM
    Psi4 wall time for execution: 0:00:02.34

*** Psi4 exiting successfully. Buy a developer a beer!
