                               Psi4 1.9.1 release

  ==> Input File <==

--------------------------------------------------------------------------
molecule {
0 2
O           0.000000           0.000000           0.000000
H           0.000000           0.000000           1.032286
}

set {
basis              cc-pvtz
reference          uks
maxiter            500
DAMPING_PERCENTAGE 1
E_CONVERGENCE      1.0E-8
D_CONVERGENCE      1.0E-8
DIIS_MAX_VECS      400
MBIS_MAXITER       8000
guess              read
}

E, wfn = energy('b3lyp', restart_file='last_wfn', return_wfn=True)
properties('b3lyp','MBIS_CHARGES', wfn=wfn)
wfn.to_file('last_wfn')
--------------------------------------------------------------------------

    Molecular point group: c2v
  Charge       = 0
  Multiplicity = 2
  Basis Set: CC-PVTZ
    Blend: CC-PVTZ
  Basis Set: (CC-PVTZ AUX)
    Blend: CC-PVTZ-JKFIT
  @DF-UKS Final Energy:   -75.76157731039639
    Total Energy =                        -75.7615773103963903
 Dipole X            :          0.0000000            0.0000000            0.0000000
 Dipole Y            :          0.0000000            0.0000000            0.0000000
 Dipole Z            :         -0.2365628            0.9100807            0.6735179
 Magnitude           :                                                    0.6735179
    Molecular point group: c2v

    Geometry (in Angstrom), charge = 0, multiplicity = 2:

       Center              X                  Y                   Z               Mass
    ------------   -----------------  -----------------  -----------------  -----------------
         O            0.000000000000     0.000000000000    -0.061188002200    15.994914619570
         H            0.000000000000     0.000000000000     0.971097997800     1.007825032230

  Charge       = 0
  Multiplicity = 2
  Basis Set: CC-PVTZ
    Blend: CC-PVTZ
  Basis Set: (CC-PVTZ AUX)
    Blend: CC-PVTZ-JKFIT

    Orbital Energies [Eh]
    ---------------------

    Alpha Occupied:

       1A1   -19.200386     2A1    -1.003167     3A1    -0.468623
       1B1    -0.414552     1B2    -0.341625

    Alpha Virtual:

       4A1     0.016574     5A1     0.337545     2B1     0.523998
       6A1     0.524000     2B2     0.558780     3B1     0.683387
       3B2     0.698907     7A1     0.889230     8A1     1.185425
       1A2     1.421853     9A1     1.422344     4B1     1.699886
       4B2     1.738240    10A1     1.930908    11A1     2.376979
       2A2     3.168868    12A1     3.169008     5B1     3.280985
       5B2     3.317483    13A1     3.601605     6B1     3.607438
       6B2     3.632687     7B1     3.960896     7B2     3.996001
      14A1     4.144339    15A1     4.699287     8B1     5.071310
       8B2     5.071566     3A2     5.277723    16A1     5.278555
       9B1     6.110843    17A1     6.136169     4A2     6.136899
       9B2     6.163844    18A1     6.231159    10B1     6.484848
      10B2     6.534904    19A1     6.883479    20A1     9.622005

    Beta Occupied:

       1A1   -19.174861     2A1    -0.931248     3A1    -0.444227
       1B2    -0.315981

    Beta Virtual:

       1B1    -0.167276     4A1     0.023836     5A1     0.342408
       6A1     0.532541     2B2     0.568573     2B1     0.594437
       3B2     0.697978     3B1     0.698867     7A1     0.919746
       8A1     1.194580     1A2     1.473978     9A1     1.479943
       4B2     1.744398     4B1     1.750227    10A1     1.944753
      11A1     2.381475     2A2     3.172116    12A1     3.172674
       5B2     3.323484     5B1     3.337477    13A1     3.606078
       6B2     3.634276     6B1     3.642959     7B2     4.002632
       7B1     4.010500    14A1     4.162631    15A1     4.728193
       8B2     5.141453     8B1     5.144446     3A2     5.323336
      16A1     5.328394     9B2     6.175851     9B1     6.191359
       4A2     6.229030    17A1     6.243406    18A1     6.256381
      10B2     6.544067    10B1     6.554660    19A1     6.914748
      20A1     9.657487

    Final Occupation by Irrep:
             A1    A2    B1    B2
    DOCC [     3,    0,    0,    1 ]
    SOCC [     0,    0,    1,    0 ]
    NA   [     3,    0,    1,    1 ]
    NB   [     3,    0,    0,    1 ]

  @DF-UKS Final Energy:   -75.76157731060353

   => Energetics <=

    Nuclear Repulsion Energy =              4.1010123990444516
    One-Electron Energy =                -112.2758038559776708
    Two-Electron Energy =                  39.5844792719839660
    DFT Exchange-Correlation Energy =      -7.1712651256542763
    Empirical Dispersion Energy =           0.0000000000000000
    VV10 Nonlocal Energy =                  0.0000000000000000
    Total Energy =                        -75.7615773106035277

  UHF NO Occupations:
  HONO-2 :    2 A1 1.9996629
  HONO-1 :    3 A1 1.9992710
  HONO-0 :    1 B1 1.0000000
  LUNO+0 :    4 A1 0.0007290
  LUNO+1 :    5 A1 0.0003371
  LUNO+2 :    2 B2 0.0001582
  LUNO+3 :    6 A1 0.0000006

Computation Completed

Properties will be evaluated at   0.000000,   0.000000,   0.000000 [a0]

Properties computed using the B3LYP density matrix

 Multipole Moments:

 ------------------------------------------------------------------------------------
     Multipole            Electronic (a.u.)      Nuclear  (a.u.)        Total (a.u.)
 ------------------------------------------------------------------------------------

 L = 1.  Multiply by 2.5417464519 to convert [e a0] to [Debye]
 Dipole X            :          0.0000000            0.0000000            0.0000000
 Dipole Y            :          0.0000000            0.0000000            0.0000000
 Dipole Z            :         -0.2365628            0.9100807            0.6735179
 Magnitude           :                                                    0.6735179

 L = 2.  Multiply by 1.3450342976 to convert [e a0^2] to [Debye ang]
 Quadrupole XX       :         -4.0508180            0.0000000           -4.0508180
 Quadrupole XY       :          0.0000000            0.0000000            0.0000000
 Quadrupole XZ       :          0.0000000            0.0000000            0.0000000
 Quadrupole YY       :         -4.9471658            0.0000000           -4.9471658
 Quadrupole YZ       :          0.0000000            0.0000000            0.0000000
 Quadrupole ZZ       :         -6.6525513            3.4745857           -3.1779655
 Traceless XX        :          1.1660270           -1.1581952            0.0078317
 Traceless YY        :          0.2696793           -1.1581952           -0.8885160
 Traceless ZZ        :         -1.4357062            2.3163905            0.8806842

 ------------------------------------------------------------------------------------
  ==> Computing MBIS Charges <==

  Electron Count from Grid (Expected Number):  9.00000 ( 9.00000)
  Difference:  0.00000

  MBIS Charges: (a.u.)
   Center  Symbol  Z      Pop.       Charge
      1       O    8    8.366871   -0.366871
      2       H    1    0.633129    0.366871

  MBIS Dipoles: [e a0]
   Center  Symbol  Z        X           Y           Z
      1       O    8    0.000000   -0.000000   -0.077193
      2       H    1    0.000000    0.000000    0.035042

  MBIS Quadrupoles: [e a0^2]
   Center  Symbol  Z      XX        XY        XZ        YY        YZ        ZZ
      1       O    8   -3.7169   -0.0000   -0.0000   -4.5737   -0.0000   -4.2158
      2       H    1   -0.3339    0.0000    0.0000   -0.3734    0.0000   -0.3392

  MBIS Octupoles: [e a0^3]
   Center  Symbol  Z      XXX       XXY       XXZ       XYY       XYZ       XZZ       YYY       YYZ       YZZ       ZZZ
      1       O    8   -0.0000   -0.0000   -0.0744   -0.0000   -0.0000    0.0000   -0.0000   -0.0844   -0.0000   -0.3925
      2       H    1    0.0000    0.0000   -0.0049    0.0000    0.0000    0.0000    0.0000    0.0136    0.0000    0.0279

  MBIS Radial Moments:
   Center  Symbol  Z      [a0^2]      [a0^3]      [a0^4]
      1       O    8   12.506476   24.063113   55.342561
      2       H    1    1.046515    1.931870    4.263574

  MBIS Valence Widths: [a0]
   Center  Symbol  Z     Width
      1       O    8    0.395267
      2       H    1    0.372202

*** tstop() called on Mac.lan at Sun Aug 10 17:11:14 2025
Module time:
	user time   =       3.58 seconds =       0.06 minutes
	system time =       1.54 seconds =       0.03 minutes
	total time  =          1 seconds =       0.02 minutes
Total time:
	user time   =      12.61 seconds =       0.21 minutes
	system time =       3.76 seconds =       0.06 minutes
	total time  =          2 seconds =       0.03 minutes

    Psi4 stopped on: Sunday, 10 August 2025 05:11PM
    Psi4 wall time for execution: 0:00:01.60

*** Psi4 exiting successfully. Buy a developer a beer!
