                               Psi4 1.9.1 release

  ==> Input File <==

--------------------------------------------------------------------------
molecule {
0 3
C           0.000000           0.000000           0.000000
C           0.000000           0.000000           1.498408
}

set {
basis              cc-pvtz
reference          uks
maxiter            500
DAMPING_PERCENTAGE 1
E_CONVERGENCE      1.0E-8
D_CONVERGENCE      1.0E-8
DIIS_MAX_VECS      400
MBIS_MAXITER       8000
guess              read
}

E, wfn = energy('b3lyp', restart_file='last_wfn', return_wfn=True)
properties('b3lyp','MBIS_CHARGES', wfn=wfn)
wfn.to_file('last_wfn')
--------------------------------------------------------------------------

    Molecular point group: d2h
  Charge       = 0
  Multiplicity = 3
  Basis Set: CC-PVTZ
    Blend: CC-PVTZ
  Basis Set: (CC-PVTZ AUX)
    Blend: CC-PVTZ-JKFIT
  @DF-UKS Final Energy:   -75.91348960324224
    Total Energy =                        -75.9134896032422404
 Dipole X            :          0.0000000            0.0000000            0.0000000
 Dipole Y            :          0.0000000            0.0000000            0.0000000
 Dipole Z            :          0.0000000           -0.0000000           -0.0000000
 Magnitude           :                                                    0.0000000
    Molecular point group: d2h

    Geometry (in Angstrom), charge = 0, multiplicity = 3:

       Center              X                  Y                   Z               Mass
    ------------   -----------------  -----------------  -----------------  -----------------
         C            0.000000000000     0.000000000000    -0.749204000000    12.000000000000
         C            0.000000000000     0.000000000000     0.749204000000    12.000000000000

  Charge       = 0
  Multiplicity = 3
  Basis Set: CC-PVTZ
    Blend: CC-PVTZ
  Basis Set: (CC-PVTZ AUX)
    Blend: CC-PVTZ-JKFIT

    Orbital Energies [Eh]
    ---------------------

    Alpha Occupied:

       1Ag   -10.321689     1B1u  -10.321294     2Ag    -0.770469
       2B1u   -0.484320     3Ag    -0.355375     1B3u   -0.340686
       1B2u   -0.309028

    Alpha Virtual:

       1B2g   -0.097500     1B3g   -0.069964     3B1u    0.151659
       2B3u    0.267192     4Ag     0.278166     2B2u    0.282134
       5Ag     0.323007     4B1u    0.324361     2B2g    0.345005
       2B3g    0.357929     1B1g    0.554013     6Ag     0.554611
       5B1u    0.605975     3B3u    0.645123     3B2u    0.668429
       1Au     0.801745     6B1u    0.802051     3B2g    1.083087
       3B3g    1.099569     7Ag     1.110142     7B1u    1.126992
       4B3u    1.870871     4B2u    1.894587     8Ag     1.964552
       4B2g    2.036277     4B3g    2.062655     2B1g    2.367715
       9Ag     2.368022     5B3u    2.368138     5B2u    2.394771
       8B1u    2.459647    10Ag     2.534530     6B3u    2.537515
       6B2u    2.537643     5B2g    2.744949     5B3g    2.745046
       3B1g    2.875717    11Ag     2.875957     9B1u    2.938495
       2Au     2.946427    10B1u    2.948605     6B2g    3.028993
       6B3g    3.050565     7B3u    3.189548     3Au     3.190783
      11B1u    3.191640     7B2u    3.213951    12B1u    3.559323
      12Ag     3.802003    13Ag     3.886601     7B2g    4.000643
       7B3g    4.025838    13B1u    7.966179

    Beta Occupied:

       1Ag   -10.306077     1B1u  -10.305869     2Ag    -0.706081
       2B1u   -0.398957     1B2u   -0.292027

    Beta Virtual:

       3Ag    -0.205734     1B3u   -0.201518     1B3g   -0.049493
       1B2g   -0.020267     3B1u    0.170769     2B2u    0.287910
       2B3u    0.298172     4Ag     0.303517     5Ag     0.354742
       2B3g    0.364173     2B2g    0.373163     4B1u    0.391045
       1B1g    0.580198     6Ag     0.582567     5B1u    0.624241
       3B2u    0.696065     3B3u    0.702931     1Au     0.825260
       6B1u    0.827255     3B3g    1.121960     3B2g    1.125065
       7Ag     1.152017     7B1u    1.166541     4B2u    1.908171
       4B3u    1.921523     8Ag     2.014130     4B3g    2.073978
       4B2g    2.084852     2B1g    2.409415     9Ag     2.411774
       5B2u    2.424076     5B3u    2.435236     8B1u    2.505454
       6B2u    2.569659     6B3u    2.570481    10Ag     2.599352
       5B3g    2.776536     5B2g    2.777369     3B1g    2.917074
      11Ag     2.921640     2Au     2.983350     9B1u    2.986894
      10B1u    3.001861     6B3g    3.095698     6B2g    3.108290
       3Au     3.234451    11B1u    3.236974     7B2u    3.258608
       7B3u    3.268425    12B1u    3.618021    12Ag     3.848739
      13Ag     3.930284     7B3g    4.057040     7B2g    4.064863
      13B1u    7.996429

    Final Occupation by Irrep:
             Ag   B1g   B2g   B3g    Au   B1u   B2u   B3u
    DOCC [     2,    0,    0,    0,    0,    2,    1,    0 ]
    SOCC [     1,    0,    0,    0,    0,    0,    0,    1 ]
    NA   [     3,    0,    0,    0,    0,    2,    1,    1 ]
    NB   [     2,    0,    0,    0,    0,    2,    1,    0 ]

  @DF-UKS Final Energy:   -75.91348960321780

   => Energetics <=

    Nuclear Repulsion Energy =             12.7137465791159734
    One-Electron Energy =                -126.2328793333751094
    Two-Electron Energy =                  46.0742777293140051
    DFT Exchange-Correlation Energy =      -8.4686345782726580
    Empirical Dispersion Energy =           0.0000000000000000
    VV10 Nonlocal Energy =                  0.0000000000000000
    Total Energy =                        -75.9134896032177835

  UHF NO Occupations:
  HONO-2 :    2B1u 1.9981470
  HONO-1 :    1B3u 1.0000000
  HONO-0 :    3 Ag 1.0000000
  LUNO+0 :    3B1u 0.0018530
  LUNO+1 :    4 Ag 0.0004006
  LUNO+2 :    2B2u 0.0001712
  LUNO+3 :    4B1u 0.0000006

Computation Completed

Properties will be evaluated at   0.000000,   0.000000,   0.000000 [a0]

Properties computed using the B3LYP density matrix

 Multipole Moments:

 ------------------------------------------------------------------------------------
     Multipole            Electronic (a.u.)      Nuclear  (a.u.)        Total (a.u.)
 ------------------------------------------------------------------------------------

 L = 1.  Multiply by 2.5417464519 to convert [e a0] to [Debye]
 Dipole X            :          0.0000000            0.0000000            0.0000000
 Dipole Y            :          0.0000000            0.0000000            0.0000000
 Dipole Z            :          0.0000000           -0.0000000           -0.0000000
 Magnitude           :                                                    0.0000000

 L = 2.  Multiply by 1.3450342976 to convert [e a0^2] to [Debye ang]
 Quadrupole XX       :         -8.2318772            0.0000000           -8.2318772
 Quadrupole XY       :          0.0000000            0.0000000            0.0000000
 Quadrupole XZ       :          0.0000000            0.0000000            0.0000000
 Quadrupole YY       :         -9.7964993            0.0000000           -9.7964993
 Quadrupole YZ       :          0.0000000            0.0000000            0.0000000
 Quadrupole ZZ       :        -32.9681446           24.0535485           -8.9145961
 Traceless XX        :          8.7669632           -8.0178495            0.7491136
 Traceless YY        :          7.2023410           -8.0178495           -0.8155085
 Traceless ZZ        :        -15.9693042           16.0356990            0.0663948

 ------------------------------------------------------------------------------------
  ==> Computing MBIS Charges <==

  Electron Count from Grid (Expected Number): 12.00000 (12.00000)
  Difference:  0.00000

  MBIS Charges: (a.u.)
   Center  Symbol  Z      Pop.       Charge
      1       C    6    6.000000   -0.000000
      2       C    6    6.000000   -0.000000

  MBIS Dipoles: [e a0]
   Center  Symbol  Z        X           Y           Z
      1       C    6   -0.000000    0.000000   -0.107599
      2       C    6   -0.000000    0.000000    0.107599

  MBIS Quadrupoles: [e a0^2]
   Center  Symbol  Z      XX        XY        XZ        YY        YZ        ZZ
      1       C    6   -4.1159   -0.0000   -0.0000   -4.8982   -0.0000   -4.7620
      2       C    6   -4.1159   -0.0000   -0.0000   -4.8982    0.0000   -4.7620

  MBIS Octupoles: [e a0^3]
   Center  Symbol  Z      XXX       XXY       XXZ       XYY       XYZ       XZZ       YYY       YYZ       YZZ       ZZZ
      1       C    6   -0.0000    0.0000   -0.1095   -0.0000    0.0000   -0.0000    0.0000   -0.3598    0.0000   -0.5866
      2       C    6   -0.0000    0.0000    0.1095   -0.0000   -0.0000   -0.0000    0.0000    0.3598    0.0000    0.5866

  MBIS Radial Moments:
   Center  Symbol  Z      [a0^2]      [a0^3]      [a0^4]
      1       C    6   13.776161   33.914604   99.473354
      2       C    6   13.776161   33.914604   99.473354

  MBIS Valence Widths: [a0]
   Center  Symbol  Z     Width
      1       C    6    0.520184
      2       C    6    0.520184

*** tstop() called on Mac.lan at Sun Aug 10 17:04:20 2025
Module time:
	user time   =       3.64 seconds =       0.06 minutes
	system time =       2.20 seconds =       0.04 minutes
	total time  =          0 seconds =       0.00 minutes
Total time:
	user time   =      15.71 seconds =       0.26 minutes
	system time =       4.54 seconds =       0.08 minutes
	total time  =          2 seconds =       0.03 minutes

    Psi4 stopped on: Sunday, 10 August 2025 05:04PM
    Psi4 wall time for execution: 0:00:01.98

*** Psi4 exiting successfully. Buy a developer a beer!
