                               Psi4 1.9.1 release

  ==> Input File <==

--------------------------------------------------------------------------
molecule {
0 2
O           0.000000           0.000000           0.000000
H           0.000000           0.000000           0.584763
}

set {
basis              cc-pvtz
reference          uks
maxiter            500
DAMPING_PERCENTAGE 1
E_CONVERGENCE      1.0E-8
D_CONVERGENCE      1.0E-8
DIIS_MAX_VECS      400
MBIS_MAXITER       8000
guess              read
}

E, wfn = energy('b3lyp', restart_file='last_wfn', return_wfn=True)
properties('b3lyp','MBIS_CHARGES', wfn=wfn)
wfn.to_file('last_wfn')
--------------------------------------------------------------------------

    Molecular point group: c2v
  Charge       = 0
  Multiplicity = 2
  Basis Set: CC-PVTZ
    Blend: CC-PVTZ
  Basis Set: (CC-PVTZ AUX)
    Blend: CC-PVTZ-JKFIT
  @DF-UKS Final Energy:   -75.37365780779002
    Total Energy =                        -75.3736578077900248
 Dipole X            :          0.0000000            0.0000000            0.0000000
 Dipole Y            :          0.0000000            0.0000000            0.0000000
 Dipole Z            :          0.0581066            0.5155369            0.5736435
 Magnitude           :                                                    0.5736435
    Molecular point group: c2v

    Geometry (in Angstrom), charge = 0, multiplicity = 2:

       Center              X                  Y                   Z               Mass
    ------------   -----------------  -----------------  -----------------  -----------------
         O            0.000000000000     0.000000000000    -0.034661401715    15.994914619570
         H            0.000000000000     0.000000000000     0.550101598285     1.007825032230

  Charge       = 0
  Multiplicity = 2
  Basis Set: CC-PVTZ
    Blend: CC-PVTZ
  Basis Set: (CC-PVTZ AUX)
    Blend: CC-PVTZ-JKFIT

    Orbital Energies [Eh]
    ---------------------

    Alpha Occupied:

       1A1   -19.167810     2A1    -1.194866     3A1    -0.535754
       1B1    -0.444044     1B2    -0.370154

    Alpha Virtual:

       4A1     0.066057     5A1     0.463170     2B1     0.500466
       2B2     0.531407     6A1     0.656610     3B1     0.771060
       7A1     0.790164     3B2     0.794716     8A1     1.406406
       1A2     1.407126     9A1     1.729192     4B1     1.827818
       4B2     1.864064    10A1     2.121262    11A1     2.885268
       5B1     3.264127     5B2     3.299021     2A2     3.394989
      12A1     3.395023     6B1     3.614872     6B2     3.665658
      13A1     3.938808     7B1     4.651902     7B2     4.690158
      14A1     4.714258     8B1     5.047356     8B2     5.047628
      15A1     5.941291     3A2     5.949698    16A1     6.067830
       9B1     6.074404     9B2     6.124624     4A2     6.150157
      17A1     6.152294    18A1     7.995613    19A1     8.314034
      10B1     8.536782    10B2     8.587825    20A1    15.770808

    Beta Occupied:

       1A1   -19.142805     2A1    -1.132106     3A1    -0.501062
       1B2    -0.344349

    Beta Virtual:

       1B1    -0.194091     4A1     0.070607     5A1     0.469660
       2B2     0.539541     2B1     0.559437     6A1     0.665667
       3B2     0.797993     3B1     0.805020     7A1     0.810908
       1A2     1.460016     8A1     1.465719     9A1     1.750236
       4B2     1.869355     4B1     1.873289    10A1     2.147550
      11A1     2.894452     5B2     3.305631     5B1     3.318166
       2A2     3.415759    12A1     3.417117     6B2     3.679248
       6B1     3.695329    13A1     3.958619     7B2     4.696284
       7B1     4.703248    14A1     4.745158     8B2     5.117882
       8B1     5.120750     3A2     5.998565    15A1     6.003414
      16A1     6.097893     9B2     6.132574     9B1     6.136862
       4A2     6.235911    17A1     6.250394    18A1     8.014728
      19A1     8.332294    10B2     8.598187    10B1     8.610195
      20A1    15.799131

    Final Occupation by Irrep:
             A1    A2    B1    B2
    DOCC [     3,    0,    0,    1 ]
    SOCC [     0,    0,    1,    0 ]
    NA   [     3,    0,    1,    1 ]
    NB   [     3,    0,    0,    1 ]

  @DF-UKS Final Energy:   -75.37365780836396

   => Energetics <=

    Nuclear Repulsion Energy =              7.2395443715830172
    One-Electron Energy =                -117.0690429386650635
    Two-Electron Energy =                  41.8707853996011252
    DFT Exchange-Correlation Energy =      -7.4149446408830473
    Empirical Dispersion Energy =           0.0000000000000000
    VV10 Nonlocal Energy =                  0.0000000000000000
    Total Energy =                        -75.3736578083639586

  UHF NO Occupations:
  HONO-2 :    1 B2 1.9998604
  HONO-1 :    3 A1 1.9993936
  HONO-0 :    1 B1 1.0000000
  LUNO+0 :    4 A1 0.0006064
  LUNO+1 :    2 B2 0.0001396
  LUNO+2 :    5 A1 0.0000779
  LUNO+3 :    6 A1 0.0000006

Computation Completed

Properties will be evaluated at   0.000000,   0.000000,   0.000000 [a0]

Properties computed using the B3LYP density matrix

 Multipole Moments:

 ------------------------------------------------------------------------------------
     Multipole            Electronic (a.u.)      Nuclear  (a.u.)        Total (a.u.)
 ------------------------------------------------------------------------------------

 L = 1.  Multiply by 2.5417464519 to convert [e a0] to [Debye]
 Dipole X            :          0.0000000            0.0000000            0.0000000
 Dipole Y            :          0.0000000            0.0000000            0.0000000
 Dipole Z            :          0.0581066            0.5155369            0.5736435
 Magnitude           :                                                    0.5736435

 L = 2.  Multiply by 1.3450342976 to convert [e a0^2] to [Debye ang]
 Quadrupole XX       :         -3.7000655            0.0000000           -3.7000655
 Quadrupole XY       :          0.0000000            0.0000000            0.0000000
 Quadrupole XZ       :          0.0000000            0.0000000            0.0000000
 Quadrupole YY       :         -4.5616521            0.0000000           -4.5616521
 Quadrupole YZ       :          0.0000000            0.0000000            0.0000000
 Quadrupole ZZ       :         -4.7655656            1.1149688           -3.6505968
 Traceless XX        :          0.6423622           -0.3716563            0.2707060
 Traceless YY        :         -0.2192243           -0.3716563           -0.5908806
 Traceless ZZ        :         -0.4231379            0.7433126            0.3201747

 ------------------------------------------------------------------------------------
  ==> Computing MBIS Charges <==

  Electron Count from Grid (Expected Number):  9.00000 ( 9.00000)
  Difference: -0.00000

  MBIS Charges: (a.u.)
   Center  Symbol  Z      Pop.       Charge
      1       O    8    8.438706   -0.438706
      2       H    1    0.561294    0.438706

  MBIS Dipoles: [e a0]
   Center  Symbol  Z        X           Y           Z
      1       O    8    0.000000   -0.000000    0.071759
      2       H    1   -0.000000    0.000000    0.017096

  MBIS Quadrupoles: [e a0^2]
   Center  Symbol  Z      XX        XY        XZ        YY        YZ        ZZ
      1       O    8   -3.5850    0.0000    0.0000   -4.4321    0.0000   -4.0302
      2       H    1   -0.1150    0.0000    0.0000   -0.1296    0.0000   -0.1188

  MBIS Octupoles: [e a0^3]
   Center  Symbol  Z      XXX       XXY       XXZ       XYY       XYZ       XZZ       YYY       YYZ       YZZ       ZZZ
      1       O    8   -0.0000   -0.0000    0.1716   -0.0000    0.0000    0.0000   -0.0000    0.1160    0.0000    0.2607
      2       H    1    0.0000    0.0000    0.0019    0.0000    0.0000    0.0000   -0.0000    0.0039    0.0000    0.0059

  MBIS Radial Moments:
   Center  Symbol  Z      [a0^2]      [a0^3]      [a0^4]
      1       O    8   12.047230   22.686651   51.053662
      2       H    1    0.363432    0.417787    0.578194

  MBIS Valence Widths: [a0]
   Center  Symbol  Z     Width
      1       O    8    0.384662
      2       H    1    0.234148

*** tstop() called on Mac.lan at Sun Aug 10 17:11:09 2025
Module time:
	user time   =       4.29 seconds =       0.07 minutes
	system time =       3.03 seconds =       0.05 minutes
	total time  =          1 seconds =       0.02 minutes
Total time:
	user time   =      12.53 seconds =       0.21 minutes
	system time =       5.36 seconds =       0.09 minutes
	total time  =          2 seconds =       0.03 minutes

    Psi4 stopped on: Sunday, 10 August 2025 05:11PM
    Psi4 wall time for execution: 0:00:01.77

*** Psi4 exiting successfully. Buy a developer a beer!
