                               Psi4 1.9.1 release

  ==> Input File <==

--------------------------------------------------------------------------
molecule {
0 3
O           0.000000           0.000000           0.000000
O           0.000000           0.000000           1.232897
}

set {
basis              cc-pvtz
reference          uks
maxiter            500
DAMPING_PERCENTAGE 1
E_CONVERGENCE      1.0E-8
D_CONVERGENCE      1.0E-8
DIIS_MAX_VECS      400
MBIS_MAXITER       8000
guess              read
}

E, wfn = energy('b3lyp', restart_file='last_wfn', return_wfn=True)
properties('b3lyp','MBIS_CHARGES', wfn=wfn)
wfn.to_file('last_wfn')
--------------------------------------------------------------------------

    Molecular point group: d2h
  Charge       = 0
  Multiplicity = 3
  Basis Set: CC-PVTZ
    Blend: CC-PVTZ
  Basis Set: (CC-PVTZ AUX)
    Blend: CC-PVTZ-JKFIT
  @DF-UKS Final Energy:  -150.37996051343882
    Total Energy =                       -150.3799605134388457
 Dipole X            :          0.0000000            0.0000000            0.0000000
 Dipole Y            :          0.0000000            0.0000000            0.0000000
 Dipole Z            :          0.0000000            0.0000000            0.0000000
 Magnitude           :                                                    0.0000000
    Molecular point group: d2h

    Geometry (in Angstrom), charge = 0, multiplicity = 3:

       Center              X                  Y                   Z               Mass
    ------------   -----------------  -----------------  -----------------  -----------------
         O            0.000000000000     0.000000000000    -0.616448500000    15.994914619570
         O            0.000000000000     0.000000000000     0.616448500000    15.994914619570

  Charge       = 0
  Multiplicity = 3
  Basis Set: CC-PVTZ
    Blend: CC-PVTZ
  Basis Set: (CC-PVTZ AUX)
    Blend: CC-PVTZ-JKFIT

    Orbital Energies [Eh]
    ---------------------

    Alpha Occupied:

       1Ag   -19.293534     1B1u  -19.293362     2Ag    -1.290304
       2B1u   -0.850433     1B2u   -0.560312     1B3u   -0.560312
       3Ag    -0.550508     1B3g   -0.321507     1B2g   -0.321507

    Alpha Virtual:

       3B1u    0.150526     4B1u    0.485058     2B3u    0.498303
       2B2u    0.498303     4Ag     0.552077     2B2g    0.610956
       2B3g    0.610956     5Ag     0.659599     5B1u    1.200267
       6Ag     1.208730     1B1g    1.208730     3B3u    1.270823
       3B2u    1.270823     6B1u    1.587918     1Au     1.587919
       7Ag     2.052133     7B1u    2.128042     3B2g    2.136884
       3B3g    2.136884     4B2u    3.377508     4B3u    3.377508
       8Ag     3.542638     4B3g    3.650772     4B2g    3.650772
       9Ag     4.572408     2B1g    4.572408     5B3u    4.618710
       5B2u    4.618710     8B1u    4.674072    10Ag     4.820819
       6B2u    4.894959     6B3u    4.894959     5B3g    5.108575
       5B2g    5.108575     9B1u    5.605287     2Au     5.605287
      10B1u    5.853679    11Ag     5.987350     3B1g    5.987364
      11B1u    6.200686     3Au     6.200701     6B3g    6.217732
       6B2g    6.217732     7B2u    6.328028     7B3u    6.328028
      12B1u    6.545145    12Ag     6.851250     7B2g    7.097339
       7B3g    7.097339    13Ag     7.549483    13B1u   11.567727

    Beta Occupied:

       1Ag   -19.263097     1B1u  -19.262794     2Ag    -1.232635
       2B1u   -0.761275     3Ag    -0.512731     1B2u   -0.457457
       1B3u   -0.457457

    Beta Virtual:

       1B3g   -0.126780     1B2g   -0.126780     3B1u    0.189987
       4B1u    0.502391     2B3u    0.534323     2B2u    0.534323
       4Ag     0.561816     2B2g    0.652270     2B3g    0.652270
       5Ag     0.681281     5B1u    1.233524     1B1g    1.251471
       6Ag     1.251471     3B3u    1.299913     3B2u    1.299913
       1Au     1.648970     6B1u    1.648970     7Ag     2.083773
       7B1u    2.147082     3B2g    2.172806     3B3g    2.172806
       4B2u    3.452509     4B3u    3.452509     8Ag     3.563821
       4B3g    3.727879     4B2g    3.727879     9Ag     4.614012
       2B1g    4.614013     5B3u    4.651889     5B2u    4.651889
       8B1u    4.709024    10Ag     4.854059     6B2u    4.966401
       6B3u    4.966401     5B3g    5.183456     5B2g    5.183456
       9B1u    5.662216     2Au     5.662217    10B1u    5.896560
      11Ag     6.097252     3B1g    6.097266     6B3g    6.277551
       6B2g    6.277551    11B1u    6.303436     3Au     6.303451
       7B2u    6.385915     7B3u    6.385915    12B1u    6.575636
      12Ag     6.887013     7B2g    7.133539     7B3g    7.133539
      13Ag     7.597591    13B1u   11.610456

    Final Occupation by Irrep:
             Ag   B1g   B2g   B3g    Au   B1u   B2u   B3u
    DOCC [     3,    0,    0,    0,    0,    2,    1,    1 ]
    SOCC [     0,    0,    1,    1,    0,    0,    0,    0 ]
    NA   [     3,    0,    1,    1,    0,    2,    1,    1 ]
    NB   [     3,    0,    0,    0,    0,    2,    1,    1 ]

  @DF-UKS Final Energy:  -150.37996051340039

   => Energetics <=

    Nuclear Repulsion Energy =             27.4697249509731947
    One-Electron Energy =                -260.8290883882719413
    Two-Electron Energy =                  96.7368064393013896
    DFT Exchange-Correlation Energy =     -13.7574035154030234
    Empirical Dispersion Energy =           0.0000000000000000
    VV10 Nonlocal Energy =                  0.0000000000000000
    Total Energy =                       -150.3799605134003912

  UHF NO Occupations:
  HONO-2 :    1B3u 1.9984173
  HONO-1 :    1B3g 1.0000000
  HONO-0 :    1B2g 1.0000000
  LUNO+0 :    2B3u 0.0015827
  LUNO+1 :    2B2u 0.0015827
  LUNO+2 :    3B1u 0.0007672
  LUNO+3 :    4 Ag 0.0002910

Computation Completed

Properties will be evaluated at   0.000000,   0.000000,   0.000000 [a0]

Properties computed using the B3LYP density matrix

 Multipole Moments:

 ------------------------------------------------------------------------------------
     Multipole            Electronic (a.u.)      Nuclear  (a.u.)        Total (a.u.)
 ------------------------------------------------------------------------------------

 L = 1.  Multiply by 2.5417464519 to convert [e a0] to [Debye]
 Dipole X            :          0.0000000            0.0000000            0.0000000
 Dipole Y            :          0.0000000            0.0000000            0.0000000
 Dipole Z            :          0.0000000            0.0000000            0.0000000
 Magnitude           :                                                    0.0000000

 L = 2.  Multiply by 1.3450342976 to convert [e a0^2] to [Debye ang]
 Quadrupole XX       :         -7.4071241            0.0000000           -7.4071241
 Quadrupole XY       :          0.0000000            0.0000000            0.0000000
 Quadrupole XZ       :          0.0000000            0.0000000            0.0000000
 Quadrupole YY       :         -7.4071241            0.0000000           -7.4071241
 Quadrupole YZ       :          0.0000000            0.0000000            0.0000000
 Quadrupole ZZ       :        -29.4382386           21.7125743           -7.7256643
 Traceless XX        :          7.3437048           -7.2375248            0.1061800
 Traceless YY        :          7.3437048           -7.2375248            0.1061800
 Traceless ZZ        :        -14.6874096           14.4750495           -0.2123601

 ------------------------------------------------------------------------------------
  ==> Computing MBIS Charges <==

  Electron Count from Grid (Expected Number): 16.00000 (16.00000)
  Difference:  0.00000

  MBIS Charges: (a.u.)
   Center  Symbol  Z      Pop.       Charge
      1       O    8    8.000000   -0.000000
      2       O    8    8.000000   -0.000000

  MBIS Dipoles: [e a0]
   Center  Symbol  Z        X           Y           Z
      1       O    8   -0.000000   -0.000000    0.088630
      2       O    8   -0.000000   -0.000000   -0.088630

  MBIS Quadrupoles: [e a0^2]
   Center  Symbol  Z      XX        XY        XZ        YY        YZ        ZZ
      1       O    8   -3.7036   -0.0000    0.0000   -3.7036   -0.0000   -3.6563
      2       O    8   -3.7036   -0.0000   -0.0000   -3.7036    0.0000   -3.6563

  MBIS Octupoles: [e a0^3]
   Center  Symbol  Z      XXX       XXY       XXZ       XYY       XYZ       XZZ       YYY       YYZ       YZZ       ZZZ
      1       O    8   -0.0000   -0.0000    0.0891    0.0000   -0.0000   -0.0000   -0.0000    0.0891   -0.0000   -0.1517
      2       O    8   -0.0000   -0.0000   -0.0891    0.0000    0.0000   -0.0000   -0.0000   -0.0891   -0.0000    0.1517

  MBIS Radial Moments:
   Center  Symbol  Z      [a0^2]      [a0^3]      [a0^4]
      1       O    8   11.063463   20.583263   45.958090
      2       O    8   11.063463   20.583263   45.958090

  MBIS Valence Widths: [a0]
   Center  Symbol  Z     Width
      1       O    8    0.381773
      2       O    8    0.381773

*** tstop() called on Mac.lan at Sun Aug 10 17:00:33 2025
Module time:
	user time   =       4.39 seconds =       0.07 minutes
	system time =       2.64 seconds =       0.04 minutes
	total time  =          1 seconds =       0.02 minutes
Total time:
	user time   =      27.39 seconds =       0.46 minutes
	system time =       5.19 seconds =       0.09 minutes
	total time  =          3 seconds =       0.05 minutes

    Psi4 stopped on: Sunday, 10 August 2025 05:00PM
    Psi4 wall time for execution: 0:00:03.23

*** Psi4 exiting successfully. Buy a developer a beer!
