                               Psi4 1.9.1 release

  ==> Input File <==

--------------------------------------------------------------------------
molecule {
0 3
O           0.000000           0.000000           0.000000
O           0.000000           0.000000           1.255045
}

set {
basis              cc-pvtz
reference          uks
maxiter            500
DAMPING_PERCENTAGE 1
E_CONVERGENCE      1.0E-8
D_CONVERGENCE      1.0E-8
DIIS_MAX_VECS      400
MBIS_MAXITER       8000
guess              SAP
}

E, wfn = energy('b3lyp', return_wfn=True)
properties('b3lyp','MBIS_CHARGES', wfn=wfn)
wfn.to_file('last_wfn')
--------------------------------------------------------------------------

    Molecular point group: d2h
  Charge       = 0
  Multiplicity = 3
  Basis Set: CC-PVTZ
    Blend: CC-PVTZ
  Basis Set: (CC-PVTZ AUX)
    Blend: CC-PVTZ-JKFIT
  @DF-UKS Final Energy:  -150.37784456827146
    Total Energy =                       -150.3778445682714562
 Dipole X            :          0.0000000            0.0000000            0.0000000
 Dipole Y            :          0.0000000            0.0000000            0.0000000
 Dipole Z            :          0.0000000            0.0000000            0.0000000
 Magnitude           :                                                    0.0000000
    Molecular point group: d2h

    Geometry (in Angstrom), charge = 0, multiplicity = 3:

       Center              X                  Y                   Z               Mass
    ------------   -----------------  -----------------  -----------------  -----------------
         O            0.000000000000     0.000000000000    -0.627522500000    15.994914619570
         O            0.000000000000     0.000000000000     0.627522500000    15.994914619570

  Charge       = 0
  Multiplicity = 3
  Basis Set: CC-PVTZ
    Blend: CC-PVTZ
  Basis Set: (CC-PVTZ AUX)
    Blend: CC-PVTZ-JKFIT

    Orbital Energies [Eh]
    ---------------------

    Alpha Occupied:

       1Ag   -19.295999     1B1u  -19.295851     2Ag    -1.274372
       2B1u   -0.857201     1B2u   -0.553714     1B3u   -0.553714
       3Ag    -0.547350     1B3g   -0.328131     1B2g   -0.328131

    Alpha Virtual:

       3B1u    0.126411     4B1u    0.480105     2B2u    0.499638
       2B3u    0.499638     4Ag     0.554794     2B3g    0.610152
       2B2g    0.610152     5Ag     0.661579     5B1u    1.198986
       6Ag     1.214784     1B1g    1.214784     3B3u    1.259843
       3B2u    1.259843     6B1u    1.579466     1Au     1.579467
       7Ag     2.024881     3B2g    2.121553     3B3g    2.121553
       7B1u    2.132526     4B3u    3.374114     4B2u    3.374114
       8Ag     3.525781     4B2g    3.638869     4B3g    3.638869
       9Ag     4.589271     2B1g    4.589272     5B2u    4.613339
       5B3u    4.613339     8B1u    4.644441    10Ag     4.794752
       6B2u    4.906552     6B3u    4.906552     5B3g    5.098602
       5B2g    5.098602     9B1u    5.561921     2Au     5.561922
      10B1u    5.951748    11Ag     5.986794     3B1g    5.986808
       6B2g    6.177400     6B3g    6.177400    11B1u    6.193678
       3Au     6.193693     7B3u    6.299788     7B2u    6.299788
      12B1u    6.482313    12Ag     6.806417     7B2g    7.045447
       7B3g    7.045447    13Ag     7.547361    13B1u   11.146855

    Beta Occupied:

       1Ag   -19.265576     1B1u  -19.265302     2Ag    -1.215711
       2B1u   -0.767887     3Ag    -0.510316     1B2u   -0.450306
       1B3u   -0.450306

    Beta Virtual:

       1B3g   -0.133797     1B2g   -0.133797     3B1u    0.166497
       4B1u    0.496244     2B2u    0.536288     2B3u    0.536288
       4Ag     0.564879     2B3g    0.651141     2B2g    0.651141
       5Ag     0.682986     5B1u    1.232289     1B1g    1.257874
       6Ag     1.257874     3B3u    1.288269     3B2u    1.288269
       1Au     1.640212     6B1u    1.640212     7Ag     2.056710
       7B1u    2.151417     3B2g    2.157280     3B3g    2.157280
       4B3u    3.448785     4B2u    3.448785     8Ag     3.546603
       4B2g    3.716073     4B3g    3.716073     9Ag     4.631496
       2B1g    4.631496     5B2u    4.646814     5B3u    4.646814
       8B1u    4.679120    10Ag     4.828375     6B2u    4.978282
       6B3u    4.978282     5B3g    5.173391     5B2g    5.173391
       9B1u    5.617973     2Au     5.617974    10B1u    5.995167
      11Ag     6.096709     3B1g    6.096723     6B2g    6.236309
       6B3g    6.236309    11B1u    6.297201     3Au     6.297216
       7B3u    6.358194     7B2u    6.358194    12B1u    6.512358
      12Ag     6.839766     7B2g    7.082561     7B3g    7.082561
      13Ag     7.598011    13B1u   11.189152

    Final Occupation by Irrep:
             Ag   B1g   B2g   B3g    Au   B1u   B2u   B3u
    DOCC [     3,    0,    0,    0,    0,    2,    1,    1 ]
    SOCC [     0,    0,    1,    1,    0,    0,    0,    0 ]
    NA   [     3,    0,    1,    1,    0,    2,    1,    1 ]
    NB   [     3,    0,    0,    0,    0,    2,    1,    1 ]

  @DF-UKS Final Energy:  -150.37784456827146

   => Energetics <=

    Nuclear Repulsion Energy =             26.9849618801556943
    One-Electron Energy =                -259.8943869559386144
    Two-Electron Energy =                  96.2743995611459837
    DFT Exchange-Correlation Energy =     -13.7428190536345252
    Empirical Dispersion Energy =           0.0000000000000000
    VV10 Nonlocal Energy =                  0.0000000000000000
    Total Energy =                       -150.3778445682714562

  UHF NO Occupations:
  HONO-2 :    1B3u 1.9983583
  HONO-1 :    1B3g 1.0000000
  HONO-0 :    1B2g 1.0000000
  LUNO+0 :    2B2u 0.0016417
  LUNO+1 :    2B3u 0.0016417
  LUNO+2 :    3B1u 0.0007654
  LUNO+3 :    4 Ag 0.0002937

Computation Completed

Properties will be evaluated at   0.000000,   0.000000,   0.000000 [a0]

Properties computed using the B3LYP density matrix

 Multipole Moments:

 ------------------------------------------------------------------------------------
     Multipole            Electronic (a.u.)      Nuclear  (a.u.)        Total (a.u.)
 ------------------------------------------------------------------------------------

 L = 1.  Multiply by 2.5417464519 to convert [e a0] to [Debye]
 Dipole X            :          0.0000000            0.0000000            0.0000000
 Dipole Y            :          0.0000000            0.0000000            0.0000000
 Dipole Z            :          0.0000000            0.0000000            0.0000000
 Magnitude           :                                                    0.0000000

 L = 2.  Multiply by 1.3450342976 to convert [e a0^2] to [Debye ang]
 Quadrupole XX       :         -7.4357098            0.0000000           -7.4357098
 Quadrupole XY       :          0.0000000            0.0000000            0.0000000
 Quadrupole XZ       :          0.0000000            0.0000000            0.0000000
 Quadrupole YY       :         -7.4357098            0.0000000           -7.4357098
 Quadrupole YZ       :          0.0000000            0.0000000            0.0000000
 Quadrupole ZZ       :        -30.1911415           22.4996790           -7.6914626
 Traceless XX        :          7.5851439           -7.4998930            0.0852509
 Traceless YY        :          7.5851439           -7.4998930            0.0852509
 Traceless ZZ        :        -15.1702878           14.9997860           -0.1705018

 ------------------------------------------------------------------------------------
  ==> Computing MBIS Charges <==

  Electron Count from Grid (Expected Number): 16.00000 (16.00000)
  Difference:  0.00000

  MBIS Charges: (a.u.)
   Center  Symbol  Z      Pop.       Charge
      1       O    8    8.000000   -0.000000
      2       O    8    8.000000   -0.000000

  MBIS Dipoles: [e a0]
   Center  Symbol  Z        X           Y           Z
      1       O    8   -0.000000   -0.000000    0.080092
      2       O    8   -0.000000   -0.000000   -0.080092

  MBIS Quadrupoles: [e a0^2]
   Center  Symbol  Z      XX        XY        XZ        YY        YZ        ZZ
      1       O    8   -3.7179   -0.0000    0.0000   -3.7179   -0.0000   -3.6558
      2       O    8   -3.7179   -0.0000   -0.0000   -3.7179    0.0000   -3.6558

  MBIS Octupoles: [e a0^3]
   Center  Symbol  Z      XXX       XXY       XXZ       XYY       XYZ       XZZ       YYY       YYZ       YZZ       ZZZ
      1       O    8   -0.0000   -0.0000    0.0760    0.0000   -0.0000   -0.0000   -0.0000    0.0760   -0.0000   -0.1712
      2       O    8   -0.0000   -0.0000   -0.0760    0.0000    0.0000   -0.0000   -0.0000   -0.0760   -0.0000    0.1712

  MBIS Radial Moments:
   Center  Symbol  Z      [a0^2]      [a0^3]      [a0^4]
      1       O    8   11.091488   20.663301   46.193742
      2       O    8   11.091488   20.663301   46.193742

  MBIS Valence Widths: [a0]
   Center  Symbol  Z     Width
      1       O    8    0.382289
      2       O    8    0.382289

*** tstop() called on Mac.lan at Sun Aug 10 17:01:36 2025
Module time:
	user time   =      13.73 seconds =       0.23 minutes
	system time =       2.20 seconds =       0.04 minutes
	total time  =          1 seconds =       0.02 minutes
Total time:
	user time   =      27.82 seconds =       0.46 minutes
	system time =       4.71 seconds =       0.08 minutes
	total time  =          3 seconds =       0.05 minutes

    Psi4 stopped on: Sunday, 10 August 2025 05:01PM
    Psi4 wall time for execution: 0:00:03.11

*** Psi4 exiting successfully. Buy a developer a beer!
