                               Psi4 1.9.1 release

  ==> Input File <==

--------------------------------------------------------------------------
molecule {
0 1
H           0.000000           0.000000           0.000000
H           0.000000           0.000000           0.786830
}

set {
basis              cc-pvtz
reference          uks
maxiter            500
DAMPING_PERCENTAGE 1
E_CONVERGENCE      1.0E-8
D_CONVERGENCE      1.0E-8
DIIS_MAX_VECS      400
MBIS_MAXITER       8000
guess              read
}

E, wfn = energy('b3lyp', restart_file='last_wfn', return_wfn=True)
properties('b3lyp','MBIS_CHARGES', wfn=wfn)
wfn.to_file('last_wfn')
--------------------------------------------------------------------------

    Molecular point group: d2h
  Charge       = 0
  Multiplicity = 1
  Basis Set: CC-PVTZ
    Blend: CC-PVTZ
  Basis Set: (CC-PVTZ AUX)
    Blend: CC-PVTZ-JKFIT
  @DF-UKS Final Energy:    -1.17882928178732
    Total Energy =                         -1.1788292817873203
 Dipole X            :          0.0000000            0.0000000            0.0000000
 Dipole Y            :          0.0000000            0.0000000            0.0000000
 Dipole Z            :          0.0000000            0.0000000            0.0000000
 Magnitude           :                                                    0.0000000
    Molecular point group: d2h

    Geometry (in Angstrom), charge = 0, multiplicity = 1:

       Center              X                  Y                   Z               Mass
    ------------   -----------------  -----------------  -----------------  -----------------
         H            0.000000000000     0.000000000000    -0.393415000000     1.007825032230
         H            0.000000000000     0.000000000000     0.393415000000     1.007825032230

  Charge       = 0
  Multiplicity = 1
  Basis Set: CC-PVTZ
    Blend: CC-PVTZ
  Basis Set: (CC-PVTZ AUX)
    Blend: CC-PVTZ-JKFIT

    Orbital Energies [Eh]
    ---------------------

    Alpha Occupied:

       1Ag    -0.425274

    Alpha Virtual:

       1B1u    0.049356     2Ag     0.198791     2B1u    0.453715
       1B2u    0.507950     1B3u    0.507950     3Ag     0.897323
       1B3g    0.928327     1B2g    0.928327     3B1u    1.352971
       4B1u    2.048571     4Ag     2.115301     1B1g    2.882259
       5Ag     2.882259     2B2u    3.057658     2B3u    3.057658
       6Ag     3.332624     2B3g    3.631216     2B2g    3.631216
       1Au     3.748058     5B1u    3.748058     3B2u    3.767491
       3B3u    3.767491     6B1u    4.209198     3B2g    5.228176
       3B3g    5.228176     7Ag     5.278464     7B1u    6.337547

    Beta Occupied:

       1Ag    -0.425274

    Beta Virtual:

       1B1u    0.049356     2Ag     0.198791     2B1u    0.453715
       1B2u    0.507950     1B3u    0.507950     3Ag     0.897323
       1B3g    0.928327     1B2g    0.928327     3B1u    1.352971
       4B1u    2.048571     4Ag     2.115301     1B1g    2.882259
       5Ag     2.882259     2B2u    3.057658     2B3u    3.057658
       6Ag     3.332624     2B3g    3.631216     2B2g    3.631216
       1Au     3.748058     5B1u    3.748058     3B2u    3.767491
       3B3u    3.767491     6B1u    4.209198     3B2g    5.228176
       3B3g    5.228176     7Ag     5.278464     7B1u    6.337547

    Final Occupation by Irrep:
             Ag   B1g   B2g   B3g    Au   B1u   B2u   B3u
    DOCC [     1,    0,    0,    0,    0,    0,    0,    0 ]
    SOCC [     0,    0,    0,    0,    0,    0,    0,    0 ]
    NA   [     1,    0,    0,    0,    0,    0,    0,    0 ]
    NB   [     1,    0,    0,    0,    0,    0,    0,    0 ]

  @DF-UKS Final Energy:    -1.17882928165081

   => Energetics <=

    Nuclear Repulsion Energy =              0.6725432567009393
    One-Electron Energy =                  -2.4452234665696122
    Two-Electron Energy =                   1.1560597493076423
    DFT Exchange-Correlation Energy =      -0.5622088210897773
    Empirical Dispersion Energy =           0.0000000000000000
    VV10 Nonlocal Energy =                  0.0000000000000000
    Total Energy =                         -1.1788292816508079

  UHF NO Occupations:
  HONO-0 :    1 Ag 2.0000000
  LUNO+0 :    2 Ag 0.0000000
  LUNO+1 :    3 Ag 0.0000000
  LUNO+2 :    4 Ag 0.0000000
  LUNO+3 :    5 Ag 0.0000000

Computation Completed

Properties will be evaluated at   0.000000,   0.000000,   0.000000 [a0]

Properties computed using the B3LYP density matrix

 Multipole Moments:

 ------------------------------------------------------------------------------------
     Multipole            Electronic (a.u.)      Nuclear  (a.u.)        Total (a.u.)
 ------------------------------------------------------------------------------------

 L = 1.  Multiply by 2.5417464519 to convert [e a0] to [Debye]
 Dipole X            :          0.0000000            0.0000000            0.0000000
 Dipole Y            :          0.0000000            0.0000000            0.0000000
 Dipole Z            :          0.0000000            0.0000000            0.0000000
 Magnitude           :                                                    0.0000000

 L = 2.  Multiply by 1.3450342976 to convert [e a0^2] to [Debye ang]
 Quadrupole XX       :         -1.6123343            0.0000000           -1.6123343
 Quadrupole XY       :          0.0000000            0.0000000            0.0000000
 Quadrupole XZ       :          0.0000000            0.0000000            0.0000000
 Quadrupole YY       :         -1.6123343            0.0000000           -1.6123343
 Quadrupole YZ       :          0.0000000            0.0000000            0.0000000
 Quadrupole ZZ       :         -2.2526855            1.1054257           -1.1472598
 Traceless XX        :          0.2134504           -0.3684752           -0.1550249
 Traceless YY        :          0.2134504           -0.3684752           -0.1550249
 Traceless ZZ        :         -0.4269008            0.7369505            0.3100497

 ------------------------------------------------------------------------------------
  ==> Computing MBIS Charges <==

  Electron Count from Grid (Expected Number):  2.00000 ( 2.00000)
  Difference: -0.00000

  MBIS Charges: (a.u.)
   Center  Symbol  Z      Pop.       Charge
      1       H    1    1.000000    0.000000
      2       H    1    1.000000    0.000000

  MBIS Dipoles: [e a0]
   Center  Symbol  Z        X           Y           Z
      1       H    1   -0.000000   -0.000000   -0.094375
      2       H    1    0.000000    0.000000    0.094375

  MBIS Quadrupoles: [e a0^2]
   Center  Symbol  Z      XX        XY        XZ        YY        YZ        ZZ
      1       H    1   -0.8062   -0.0000   -0.0000   -0.8062   -0.0000   -0.7140
      2       H    1   -0.8062    0.0000   -0.0000   -0.8062    0.0000   -0.7140

  MBIS Octupoles: [e a0^3]
   Center  Symbol  Z      XXX       XXY       XXZ       XYY       XYZ       XZZ       YYY       YYZ       YZZ       ZZZ
      1       H    1   -0.0000    0.0000   -0.0557    0.0000   -0.0000    0.0000    0.0000   -0.0557    0.0000   -0.0809
      2       H    1    0.0000   -0.0000    0.0557    0.0000    0.0000   -0.0000    0.0000    0.0557    0.0000    0.0809

  MBIS Radial Moments:
   Center  Symbol  Z      [a0^2]      [a0^3]      [a0^4]
      1       H    1    2.326289    5.208399   14.155074
      2       H    1    2.326289    5.208399   14.155074

  MBIS Valence Widths: [a0]
   Center  Symbol  Z     Width
      1       H    1    0.438575
      2       H    1    0.438575

*** tstop() called on Mac.lan at Sun Aug 10 16:59:37 2025
Module time:
	user time   =       0.45 seconds =       0.01 minutes
	system time =       1.31 seconds =       0.02 minutes
	total time  =          0 seconds =       0.00 minutes
Total time:
	user time   =       1.54 seconds =       0.03 minutes
	system time =       3.34 seconds =       0.06 minutes
	total time  =          1 seconds =       0.02 minutes

    Psi4 stopped on: Sunday, 10 August 2025 04:59PM
    Psi4 wall time for execution: 0:00:00.76

*** Psi4 exiting successfully. Buy a developer a beer!
