                               Psi4 1.9.1 release

  ==> Input File <==

--------------------------------------------------------------------------
molecule {
0 1
N           0.000000           0.000000           0.000000
N           0.000000           0.000000           0.935423
}

set {
basis              cc-pvtz
reference          uks
maxiter            500
DAMPING_PERCENTAGE 1
E_CONVERGENCE      1.0E-8
D_CONVERGENCE      1.0E-8
DIIS_MAX_VECS      400
MBIS_MAXITER       8000
guess              read
}

E, wfn = energy('b3lyp', restart_file='last_wfn', return_wfn=True)
properties('b3lyp','MBIS_CHARGES', wfn=wfn)
wfn.to_file('last_wfn')
--------------------------------------------------------------------------

    Molecular point group: d2h
  Charge       = 0
  Multiplicity = 1
  Basis Set: CC-PVTZ
    Blend: CC-PVTZ
  Basis Set: (CC-PVTZ AUX)
    Blend: CC-PVTZ-JKFIT
  @DF-UKS Final Energy:  -109.46653597523240
    Total Energy =                       -109.4665359752324036
 Dipole X            :          0.0000000            0.0000000            0.0000000
 Dipole Y            :          0.0000000            0.0000000            0.0000000
 Dipole Z            :          0.0000000            0.0000000            0.0000000
 Magnitude           :                                                    0.0000000
    Molecular point group: d2h

    Geometry (in Angstrom), charge = 0, multiplicity = 1:

       Center              X                  Y                   Z               Mass
    ------------   -----------------  -----------------  -----------------  -----------------
         N            0.000000000000     0.000000000000    -0.467711500000    14.003074004430
         N            0.000000000000     0.000000000000     0.467711500000    14.003074004430

  Charge       = 0
  Multiplicity = 1
  Basis Set: CC-PVTZ
    Blend: CC-PVTZ
  Basis Set: (CC-PVTZ AUX)
    Blend: CC-PVTZ-JKFIT

    Orbital Energies [Eh]
    ---------------------

    Alpha Occupied:

       1Ag   -14.372334     1B1u  -14.364262     2Ag    -1.218567
       1B2u   -0.530342     1B3u   -0.530342     2B1u   -0.509216
       3Ag    -0.442063

    Alpha Virtual:

       1B2g    0.057838     1B3g    0.057838     3B1u    0.306390
       2B3u    0.366638     2B2u    0.366638     4Ag     0.392628
       5Ag     0.501702     2B2g    0.560675     2B3g    0.560675
       4B1u    0.788215     6Ag     0.827076     1B1g    0.827076
       5B1u    1.107047     3B2u    1.202945     3B3u    1.202945
       6B1u    1.327539     1Au     1.327539     7Ag     1.631707
       3B2g    1.695512     3B3g    1.695512     7B1u    2.329761
       4B2u    2.697126     4B3u    2.697126     8Ag     3.047748
       4B2g    3.252273     4B3g    3.252273     8B1u    3.344164
       5B3u    3.518411     5B2u    3.518411     9Ag     3.525778
       2B1g    3.525778     6B2u    3.771596     6B3u    3.771596
      10Ag     4.118679     5B2g    4.219854     5B3g    4.219854
       6B2g    4.326377     6B3g    4.326377    11Ag     4.395904
       3B1g    4.395905     9B1u    4.483075     2Au     4.483076
      12Ag     4.874348    10B1u    5.020876     7B2u    5.244742
       7B3u    5.244742    11B1u    5.324233     3Au     5.324233
      12B1u    6.307586     7B2g    7.135048     7B3g    7.135048
      13Ag     7.757185    13B1u   22.091503

    Beta Occupied:

       1Ag   -14.372334     1B1u  -14.364262     2Ag    -1.218567
       1B2u   -0.530342     1B3u   -0.530342     2B1u   -0.509216
       3Ag    -0.442063

    Beta Virtual:

       1B2g    0.057838     1B3g    0.057838     3B1u    0.306390
       2B3u    0.366638     2B2u    0.366638     4Ag     0.392628
       5Ag     0.501702     2B2g    0.560675     2B3g    0.560675
       4B1u    0.788215     6Ag     0.827076     1B1g    0.827076
       5B1u    1.107047     3B2u    1.202945     3B3u    1.202945
       6B1u    1.327539     1Au     1.327539     7Ag     1.631707
       3B2g    1.695512     3B3g    1.695512     7B1u    2.329761
       4B2u    2.697126     4B3u    2.697126     8Ag     3.047748
       4B2g    3.252273     4B3g    3.252273     8B1u    3.344164
       5B3u    3.518411     5B2u    3.518411     9Ag     3.525778
       2B1g    3.525778     6B2u    3.771596     6B3u    3.771596
      10Ag     4.118679     5B2g    4.219854     5B3g    4.219854
       6B2g    4.326377     6B3g    4.326377    11Ag     4.395904
       3B1g    4.395905     9B1u    4.483075     2Au     4.483076
      12Ag     4.874348    10B1u    5.020876     7B2u    5.244742
       7B3u    5.244742    11B1u    5.324233     3Au     5.324233
      12B1u    6.307586     7B2g    7.135048     7B3g    7.135048
      13Ag     7.757185    13B1u   22.091503

    Final Occupation by Irrep:
             Ag   B1g   B2g   B3g    Au   B1u   B2u   B3u
    DOCC [     3,    0,    0,    0,    0,    2,    1,    1 ]
    SOCC [     0,    0,    0,    0,    0,    0,    0,    0 ]
    NA   [     3,    0,    0,    0,    0,    2,    1,    1 ]
    NB   [     3,    0,    0,    0,    0,    2,    1,    1 ]

  @DF-UKS Final Energy:  -109.46653597507533

   => Energetics <=

    Nuclear Repulsion Energy =             27.7197410399680173
    One-Electron Energy =                -202.3264625310635552
    Two-Electron Energy =                  76.4243787722109715
    DFT Exchange-Correlation Energy =     -11.2841932561907736
    Empirical Dispersion Energy =           0.0000000000000000
    VV10 Nonlocal Energy =                  0.0000000000000000
    Total Energy =                       -109.4665359750753311

  UHF NO Occupations:
  HONO-2 :    2B1u 2.0000000
  HONO-1 :    1B2u 2.0000000
  HONO-0 :    3 Ag 2.0000000
  LUNO+0 :    3B1u 0.0000000
  LUNO+1 :    2B2u 0.0000000
  LUNO+2 :    4B1u 0.0000000
  LUNO+3 :    4 Ag 0.0000000

Computation Completed

Properties will be evaluated at   0.000000,   0.000000,   0.000000 [a0]

Properties computed using the B3LYP density matrix

 Multipole Moments:

 ------------------------------------------------------------------------------------
     Multipole            Electronic (a.u.)      Nuclear  (a.u.)        Total (a.u.)
 ------------------------------------------------------------------------------------

 L = 1.  Multiply by 2.5417464519 to convert [e a0] to [Debye]
 Dipole X            :          0.0000000            0.0000000            0.0000000
 Dipole Y            :          0.0000000            0.0000000            0.0000000
 Dipole Z            :          0.0000000            0.0000000            0.0000000
 Magnitude           :                                                    0.0000000

 L = 2.  Multiply by 1.3450342976 to convert [e a0^2] to [Debye ang]
 Quadrupole XX       :         -7.1333390            0.0000000           -7.1333390
 Quadrupole XY       :          0.0000000            0.0000000            0.0000000
 Quadrupole XZ       :          0.0000000            0.0000000            0.0000000
 Quadrupole YY       :         -7.1333390            0.0000000           -7.1333390
 Quadrupole YZ       :          0.0000000            0.0000000            0.0000000
 Quadrupole ZZ       :        -19.5582991           10.9365884           -8.6217108
 Traceless XX        :          4.1416534           -3.6455295            0.4961239
 Traceless YY        :          4.1416534           -3.6455295            0.4961239
 Traceless ZZ        :         -8.2833068            7.2910589           -0.9922479

 ------------------------------------------------------------------------------------
  ==> Computing MBIS Charges <==

  Electron Count from Grid (Expected Number): 14.00000 (14.00000)
  Difference: -0.00000

  MBIS Charges: (a.u.)
   Center  Symbol  Z      Pop.       Charge
      1       N    7    7.000000    0.000000
      2       N    7    7.000000    0.000000

  MBIS Dipoles: [e a0]
   Center  Symbol  Z        X           Y           Z
      1       N    7   -0.000000    0.000000    0.099248
      2       N    7    0.000000    0.000000   -0.099248

  MBIS Quadrupoles: [e a0^2]
   Center  Symbol  Z      XX        XY        XZ        YY        YZ        ZZ
      1       N    7   -3.5667   -0.0000   -0.0000   -3.5667   -0.0000   -4.1354
      2       N    7   -3.5667   -0.0000    0.0000   -3.5667    0.0000   -4.1354

  MBIS Octupoles: [e a0^3]
   Center  Symbol  Z      XXX       XXY       XXZ       XYY       XYZ       XZZ       YYY       YYZ       YZZ       ZZZ
      1       N    7    0.0000    0.0000    0.1394    0.0000    0.0000    0.0000   -0.0000    0.1394    0.0000    0.4453
      2       N    7    0.0000    0.0000   -0.1394    0.0000   -0.0000    0.0000   -0.0000   -0.1394    0.0000   -0.4453

  MBIS Radial Moments:
   Center  Symbol  Z      [a0^2]      [a0^3]      [a0^4]
      1       N    7   11.268754   22.814629   55.282055
      2       N    7   11.268754   22.814629   55.282055

  MBIS Valence Widths: [a0]
   Center  Symbol  Z     Width
      1       N    7    0.419825
      2       N    7    0.419825

*** tstop() called on Mac.lan at Sun Aug 10 17:05:53 2025
Module time:
	user time   =       3.84 seconds =       0.06 minutes
	system time =       2.35 seconds =       0.04 minutes
	total time  =          1 seconds =       0.02 minutes
Total time:
	user time   =      18.89 seconds =       0.31 minutes
	system time =       4.78 seconds =       0.08 minutes
	total time  =          3 seconds =       0.05 minutes

    Psi4 stopped on: Sunday, 10 August 2025 05:05PM
    Psi4 wall time for execution: 0:00:02.32

*** Psi4 exiting successfully. Buy a developer a beer!
