                               Psi4 1.9.1 release

  ==> Input File <==

--------------------------------------------------------------------------
molecule {
0 1
O           0.000000           0.000000           0.000000
C           0.000000           0.000000           0.779098
}

set {
basis              cc-pvtz
reference          uks
maxiter            500
DAMPING_PERCENTAGE 1
E_CONVERGENCE      1.0E-8
D_CONVERGENCE      1.0E-8
DIIS_MAX_VECS      400
MBIS_MAXITER       8000
guess              read
}

E, wfn = energy('b3lyp', restart_file='last_wfn', return_wfn=True)
properties('b3lyp','MBIS_CHARGES', wfn=wfn)
wfn.to_file('last_wfn')
--------------------------------------------------------------------------

    Molecular point group: c2v
  Charge       = 0
  Multiplicity = 1
  Basis Set: CC-PVTZ
    Blend: CC-PVTZ
  Basis Set: (CC-PVTZ AUX)
    Blend: CC-PVTZ-JKFIT
  @DF-UKS Final Energy:  -112.67746273887008
    Total Energy =                       -112.6774627388700765
 Dipole X            :          0.0000000            0.0000000            0.0000000
 Dipole Y            :          0.0000000            0.0000000            0.0000000
 Dipole Z            :         -0.4630907           -0.0016047           -0.4646954
 Magnitude           :                                                    0.4646954
    Molecular point group: c2v

    Geometry (in Angstrom), charge = 0, multiplicity = 1:

       Center              X                  Y                   Z               Mass
    ------------   -----------------  -----------------  -----------------  -----------------
         O            0.000000000000     0.000000000000    -0.333959796879    15.994914619570
         C            0.000000000000     0.000000000000     0.445138203121    12.000000000000

  Charge       = 0
  Multiplicity = 1
  Basis Set: CC-PVTZ
    Blend: CC-PVTZ
  Basis Set: (CC-PVTZ AUX)
    Blend: CC-PVTZ-JKFIT

    Orbital Energies [Eh]
    ---------------------

    Alpha Occupied:

       1A1   -19.204068     2A1   -10.189682     3A1    -1.321197
       1B2    -0.648275     1B1    -0.648275     4A1    -0.576788
       5A1    -0.339156

    Alpha Virtual:

       2B1     0.112758     2B2     0.112758     6A1     0.169200
       7A1     0.303922     3B2     0.306907     3B1     0.306907
       8A1     0.542861     4B1     0.611160     4B2     0.611160
       1A2     0.633926     9A1     0.633926    10A1     0.859694
       5B2     1.027400     5B1     1.027400    11A1     1.284156
      12A1     1.605239     2A2     1.605239     6B2     1.666617
       6B1     1.666617    13A1     1.786154    14A1     2.190319
       7B1     2.238148     7B2     2.238148     8B2     2.635299
       8B1     2.635299    15A1     2.746170     3A2     2.889414
      16A1     2.889414     9B2     3.054435     9B1     3.054435
       4A2     3.120765    17A1     3.120765    18A1     3.164634
      10B2     3.815064    10B1     3.815064    19A1     4.172577
      11B2     4.248033    11B1     4.248033    12B1     5.200762
      12B2     5.200762    20A1     5.691375    21A1     6.166614
       5A2     6.166614    22A1     6.305138     6A2     6.305139
      23A1     6.486935    13B2     6.525707    13B1     6.525707
      24A1     7.219076    14B2     7.496303    14B1     7.496303
      25A1     9.788420    26A1    16.837403

    Beta Occupied:

       1A1   -19.204068     2A1   -10.189682     3A1    -1.321197
       1B2    -0.648275     1B1    -0.648275     4A1    -0.576788
       5A1    -0.339156

    Beta Virtual:

       2B1     0.112758     2B2     0.112758     6A1     0.169200
       7A1     0.303922     3B2     0.306907     3B1     0.306907
       8A1     0.542861     4B1     0.611160     4B2     0.611160
       1A2     0.633926     9A1     0.633926    10A1     0.859694
       5B2     1.027400     5B1     1.027400    11A1     1.284156
      12A1     1.605239     2A2     1.605239     6B2     1.666617
       6B1     1.666617    13A1     1.786154    14A1     2.190319
       7B1     2.238148     7B2     2.238148     8B2     2.635299
       8B1     2.635299    15A1     2.746170     3A2     2.889414
      16A1     2.889414     9B2     3.054435     9B1     3.054435
       4A2     3.120765    17A1     3.120765    18A1     3.164634
      10B2     3.815064    10B1     3.815064    19A1     4.172577
      11B2     4.248033    11B1     4.248033    12B1     5.200762
      12B2     5.200762    20A1     5.691375    21A1     6.166614
       5A2     6.166614    22A1     6.305138     6A2     6.305139
      23A1     6.486935    13B2     6.525707    13B1     6.525707
      24A1     7.219076    14B2     7.496303    14B1     7.496303
      25A1     9.788420    26A1    16.837403

    Final Occupation by Irrep:
             A1    A2    B1    B2
    DOCC [     5,    0,    1,    1 ]
    SOCC [     0,    0,    0,    0 ]
    NA   [     5,    0,    1,    1 ]
    NB   [     5,    0,    1,    1 ]

  @DF-UKS Final Energy:  -112.67746272300921

   => Energetics <=

    Nuclear Repulsion Energy =             32.6024532371537461
    One-Electron Energy =                -216.3025139916524608
    Two-Electron Energy =                  82.7253869062150500
    DFT Exchange-Correlation Energy =     -11.7027888747255613
    Empirical Dispersion Energy =           0.0000000000000000
    VV10 Nonlocal Energy =                  0.0000000000000000
    Total Energy =                       -112.6774627230092136

  UHF NO Occupations:
  HONO-2 :    1 B1 2.0000000
  HONO-1 :    4 A1 2.0000000
  HONO-0 :    5 A1 2.0000000
  LUNO+0 :    6 A1 0.0000000
  LUNO+1 :    7 A1 0.0000000
  LUNO+2 :    8 A1 0.0000000
  LUNO+3 :    9 A1 0.0000000

Computation Completed

Properties will be evaluated at   0.000000,   0.000000,   0.000000 [a0]

Properties computed using the B3LYP density matrix

 Multipole Moments:

 ------------------------------------------------------------------------------------
     Multipole            Electronic (a.u.)      Nuclear  (a.u.)        Total (a.u.)
 ------------------------------------------------------------------------------------

 L = 1.  Multiply by 2.5417464519 to convert [e a0] to [Debye]
 Dipole X            :          0.0000000            0.0000000            0.0000000
 Dipole Y            :          0.0000000            0.0000000            0.0000000
 Dipole Z            :         -0.4630907           -0.0016047           -0.4646954
 Magnitude           :                                                    0.4646954

 L = 2.  Multiply by 1.3450342976 to convert [e a0^2] to [Debye ang]
 Quadrupole XX       :         -6.8146869            0.0000000           -6.8146869
 Quadrupole XY       :          0.0000000            0.0000000            0.0000000
 Quadrupole XZ       :          0.0000000            0.0000000            0.0000000
 Quadrupole YY       :         -6.8146869            0.0000000           -6.8146869
 Quadrupole YZ       :          0.0000000            0.0000000            0.0000000
 Quadrupole ZZ       :        -16.1690400            7.4318190           -8.7372209
 Traceless XX        :          3.1181177           -2.4772730            0.6408447
 Traceless YY        :          3.1181177           -2.4772730            0.6408447
 Traceless ZZ        :         -6.2362354            4.9545460           -1.2816893

 ------------------------------------------------------------------------------------
  ==> Computing MBIS Charges <==

  Electron Count from Grid (Expected Number): 14.00000 (14.00000)
  Difference:  0.00000

  MBIS Charges: (a.u.)
   Center  Symbol  Z      Pop.       Charge
      1       O    8    7.904442    0.095558
      2       C    6    6.095560   -0.095560

  MBIS Dipoles: [e a0]
   Center  Symbol  Z        X           Y           Z
      1       O    8   -0.000000    0.000000   -0.009574
      2       C    6    0.000000    0.000000   -0.314431

  MBIS Quadrupoles: [e a0^2]
   Center  Symbol  Z      XX        XY        XZ        YY        YZ        ZZ
      1       O    8   -2.9220   -0.0000    0.0000   -2.9220    0.0000   -3.3318
      2       C    6   -3.8927   -0.0000    0.0000   -3.8927    0.0000   -4.8590

  MBIS Octupoles: [e a0^3]
   Center  Symbol  Z      XXX       XXY       XXZ       XYY       XYZ       XZZ       YYY       YYZ       YZZ       ZZZ
      1       O    8   -0.0000    0.0000    0.0589   -0.0000   -0.0000    0.0000    0.0000    0.0589   -0.0000    0.2605
      2       C    6   -0.0000    0.0000   -0.5745   -0.0000    0.0000   -0.0000    0.0000   -0.5745    0.0000   -1.4707

  MBIS Radial Moments:
   Center  Symbol  Z      [a0^2]      [a0^3]      [a0^4]
      1       O    8    9.175804   15.514393   31.580978
      2       C    6   12.644324   29.897491   84.125875

  MBIS Valence Widths: [a0]
   Center  Symbol  Z     Width
      1       O    8    0.348526
      2       C    6    0.488394

*** tstop() called on Mac.lan at Sun Aug 10 17:17:15 2025
Module time:
	user time   =       4.85 seconds =       0.08 minutes
	system time =       1.62 seconds =       0.03 minutes
	total time  =          1 seconds =       0.02 minutes
Total time:
	user time   =      15.28 seconds =       0.25 minutes
	system time =       4.06 seconds =       0.07 minutes
	total time  =          2 seconds =       0.03 minutes

    Psi4 stopped on: Sunday, 10 August 2025 05:17PM
    Psi4 wall time for execution: 0:00:01.88

*** Psi4 exiting successfully. Buy a developer a beer!
