                               Psi4 1.9.1 release

  ==> Input File <==

--------------------------------------------------------------------------
molecule {
0 2
C           0.000000           0.000000           0.000000
H           0.000000           0.000000           0.818696
}

set {
basis              cc-pvtz
reference          uks
maxiter            500
DAMPING_PERCENTAGE 1
E_CONVERGENCE      1.0E-8
D_CONVERGENCE      1.0E-8
DIIS_MAX_VECS      400
MBIS_MAXITER       8000
guess              read
}

E, wfn = energy('b3lyp', restart_file='last_wfn', return_wfn=True)
properties('b3lyp','MBIS_CHARGES', wfn=wfn)
wfn.to_file('last_wfn')
--------------------------------------------------------------------------

    Molecular point group: c2v
  Charge       = 0
  Multiplicity = 2
  Basis Set: CC-PVTZ
    Blend: CC-PVTZ
  Basis Set: (CC-PVTZ AUX)
    Blend: CC-PVTZ-JKFIT
  @DF-UKS Final Energy:   -38.40594588739484
    Total Energy =                        -38.4059458873948429
 Dipole X            :          0.0000000            0.0000000            0.0000000
 Dipole Y            :          0.0000000            0.0000000            0.0000000
 Dipole Z            :          0.0466239            0.7080377            0.7546615
 Magnitude           :                                                    0.7546615
    Molecular point group: c2v

    Geometry (in Angstrom), charge = 0, multiplicity = 2:

       Center              X                  Y                   Z               Mass
    ------------   -----------------  -----------------  -----------------  -----------------
         C            0.000000000000     0.000000000000    -0.063431228552    12.000000000000
         H            0.000000000000     0.000000000000     0.755264771448     1.007825032230

  Charge       = 0
  Multiplicity = 2
  Basis Set: CC-PVTZ
    Blend: CC-PVTZ
  Basis Set: (CC-PVTZ AUX)
    Blend: CC-PVTZ-JKFIT

    Orbital Energies [Eh]
    ---------------------

    Alpha Occupied:

       1A1   -10.246746     2A1    -0.737373     3A1    -0.324481
       1B1    -0.260245

    Alpha Virtual:

       1B2    -0.148843     4A1     0.074504     5A1     0.285865
       2B1     0.291619     2B2     0.310610     6A1     0.372585
       7A1     0.584095     3B1     0.614099     3B2     0.618947
       1A2     0.654274     8A1     0.660280     9A1     1.004877
       4B1     1.084753     4B2     1.084952    10A1     1.842134
      11A1     1.901029     5B1     1.928900     5B2     1.953244
      12A1     2.186192     2A2     2.563472    13A1     2.567335
       6B1     2.643140     6B2     2.645339     7B1     2.704365
       7B2     2.712771     3A2     2.890024    14A1     2.900337
       8B1     3.022112     8B2     3.024093    15A1     3.034962
      16A1     3.758286     4A2     3.913971    17A1     3.916987
       9B2     3.995299     9B1     3.996806    10B1     5.478654
      10B2     5.481771    18A1     5.499425    19A1     5.799230
      20A1    12.360820

    Beta Occupied:

       1A1   -10.232330     2A1    -0.698666     3A1    -0.299371

    Beta Virtual:

       1B2    -0.132685     1B1    -0.086977     4A1     0.077222
       5A1     0.292407     2B2     0.317802     2B1     0.345409
       6A1     0.387593     7A1     0.597666     3B2     0.621775
       3B1     0.649237     1A2     0.697778     8A1     0.698107
       9A1     1.015583     4B2     1.086070     4B1     1.104557
      10A1     1.862831    11A1     1.911455     5B2     1.965151
       5B1     2.008495    12A1     2.213094     2A2     2.597508
      13A1     2.597969     6B2     2.700132     6B1     2.700937
       7B2     2.717095     7B1     2.753843    14A1     2.957083
       3A2     2.961202     8B2     3.027567    15A1     3.057718
       8B1     3.060553    16A1     3.769395     4A2     3.935385
      17A1     3.936582     9B2     3.994937     9B1     4.014039
      10B2     5.484006    18A1     5.511493    10B1     5.513614
      19A1     5.806279    20A1    12.375735

    Final Occupation by Irrep:
             A1    A2    B1    B2
    DOCC [     3,    0,    0,    0 ]
    SOCC [     0,    0,    1,    0 ]
    NA   [     3,    0,    1,    0 ]
    NB   [     3,    0,    0,    0 ]

  @DF-UKS Final Energy:   -38.40594588943937

   => Energetics <=

    Nuclear Repulsion Energy =              3.8781956477373773
    One-Electron Energy =                 -58.4077542726207781
    Two-Electron Energy =                  20.7809346328130538
    DFT Exchange-Correlation Energy =      -4.6573218973690196
    Empirical Dispersion Energy =           0.0000000000000000
    VV10 Nonlocal Energy =                  0.0000000000000000
    Total Energy =                        -38.4059458894393657

  UHF NO Occupations:
  HONO-2 :    2 A1 1.9999040
  HONO-1 :    3 A1 1.9987920
  HONO-0 :    1 B1 1.0000000
  LUNO+0 :    4 A1 0.0012080
  LUNO+1 :    5 A1 0.0000960
  LUNO+2 :    6 A1 0.0000007
  LUNO+3 :    7 A1 0.0000000

Computation Completed

Properties will be evaluated at   0.000000,   0.000000,   0.000000 [a0]

Properties computed using the B3LYP density matrix

 Multipole Moments:

 ------------------------------------------------------------------------------------
     Multipole            Electronic (a.u.)      Nuclear  (a.u.)        Total (a.u.)
 ------------------------------------------------------------------------------------

 L = 1.  Multiply by 2.5417464519 to convert [e a0] to [Debye]
 Dipole X            :          0.0000000            0.0000000            0.0000000
 Dipole Y            :          0.0000000            0.0000000            0.0000000
 Dipole Z            :          0.0466239            0.7080377            0.7546615
 Magnitude           :                                                    0.7546615

 L = 2.  Multiply by 1.3450342976 to convert [e a0^2] to [Debye ang]
 Quadrupole XX       :         -5.4748121            0.0000000           -5.4748121
 Quadrupole XY       :          0.0000000            0.0000000            0.0000000
 Quadrupole XZ       :          0.0000000            0.0000000            0.0000000
 Quadrupole YY       :         -3.9816085            0.0000000           -3.9816085
 Quadrupole YZ       :          0.0000000            0.0000000            0.0000000
 Quadrupole ZZ       :         -7.5522666            2.1232337           -5.4290328
 Traceless XX        :          0.1947503           -0.7077446           -0.5129943
 Traceless YY        :          1.6879539           -0.7077446            0.9802093
 Traceless ZZ        :         -1.8827042            1.4154892           -0.4672150

 ------------------------------------------------------------------------------------
  ==> Computing MBIS Charges <==

  Electron Count from Grid (Expected Number):  7.00000 ( 7.00000)
  Difference: -0.00000

  MBIS Charges: (a.u.)
   Center  Symbol  Z      Pop.       Charge
      1       C    6    6.145494   -0.145494
      2       H    1    0.854506    0.145494

  MBIS Dipoles: [e a0]
   Center  Symbol  Z        X           Y           Z
      1       C    6   -0.000000    0.000000    0.496957
      2       H    1   -0.000000    0.000000    0.032609

  MBIS Quadrupoles: [e a0^2]
   Center  Symbol  Z      XX        XY        XZ        YY        YZ        ZZ
      1       C    6   -5.1444    0.0000   -0.0000   -3.6993    0.0000   -5.3836
      2       H    1   -0.3304   -0.0000   -0.0000   -0.2823    0.0000   -0.3136

  MBIS Octupoles: [e a0^3]
   Center  Symbol  Z      XXX       XXY       XXZ       XYY       XYZ       XZZ       YYY       YYZ       YZZ       ZZZ
      1       C    6   -0.0000    0.0000    0.7970   -0.0000   -0.0000   -0.0000    0.0000    0.9037    0.0000    1.9491
      2       H    1   -0.0000   -0.0000    0.0095   -0.0000   -0.0000   -0.0000    0.0000   -0.0046    0.0000    0.0036

  MBIS Radial Moments:
   Center  Symbol  Z      [a0^2]      [a0^3]      [a0^4]
      1       C    6   14.227310   35.241988   103.774497
      2       H    1    0.926371    1.361681    2.402697

  MBIS Valence Widths: [a0]
   Center  Symbol  Z     Width
      1       C    6    0.518606
      2       H    1    0.304630

*** tstop() called on Mac.lan at Sun Aug 10 17:08:48 2025
Module time:
	user time   =       3.58 seconds =       0.06 minutes
	system time =       2.21 seconds =       0.04 minutes
	total time  =          1 seconds =       0.02 minutes
Total time:
	user time   =      11.24 seconds =       0.19 minutes
	system time =       4.31 seconds =       0.07 minutes
	total time  =          1 seconds =       0.02 minutes

    Psi4 stopped on: Sunday, 10 August 2025 05:08PM
    Psi4 wall time for execution: 0:00:01.53

*** Psi4 exiting successfully. Buy a developer a beer!
