                               Psi4 1.9.1 release

  ==> Input File <==

--------------------------------------------------------------------------
molecule {
0 2
O           0.000000           0.000000           0.000000
H           0.000000           0.000000           1.444007
}

set {
basis              cc-pvtz
reference          uks
maxiter            500
DAMPING_PERCENTAGE 1
E_CONVERGENCE      1.0E-8
D_CONVERGENCE      1.0E-8
DIIS_MAX_VECS      400
MBIS_MAXITER       8000
guess              read
}

E, wfn = energy('b3lyp', restart_file='last_wfn', return_wfn=True)
properties('b3lyp','MBIS_CHARGES', wfn=wfn)
wfn.to_file('last_wfn')
--------------------------------------------------------------------------

    Molecular point group: c2v
  Charge       = 0
  Multiplicity = 2
  Basis Set: CC-PVTZ
    Blend: CC-PVTZ
  Basis Set: (CC-PVTZ AUX)
    Blend: CC-PVTZ-JKFIT
  @DF-UKS Final Energy:   -75.68620267092560
    Total Energy =                        -75.6862026709255957
 Dipole X            :          0.0000000            0.0000000            0.0000000
 Dipole Y            :          0.0000000            0.0000000            0.0000000
 Dipole Z            :         -0.5699932            1.2730609            0.7030677
 Magnitude           :                                                    0.7030677
    Molecular point group: c2v

    Geometry (in Angstrom), charge = 0, multiplicity = 2:

       Center              X                  Y                   Z               Mass
    ------------   -----------------  -----------------  -----------------  -----------------
         O            0.000000000000     0.000000000000    -0.085592465163    15.994914619570
         H            0.000000000000     0.000000000000     1.358414534837     1.007825032230

  Charge       = 0
  Multiplicity = 2
  Basis Set: CC-PVTZ
    Blend: CC-PVTZ
  Basis Set: (CC-PVTZ AUX)
    Blend: CC-PVTZ-JKFIT

    Orbital Energies [Eh]
    ---------------------

    Alpha Occupied:

       1A1   -19.220108     2A1    -0.957637     3A1    -0.416076
       1B1    -0.408919     1B2    -0.334907

    Alpha Virtual:

       4A1    -0.091331     5A1     0.249498     2B1     0.495802
       2B2     0.522294     6A1     0.575025     3B1     0.672175
       3B2     0.689234     7A1     0.789311     8A1     1.043997
       1A2     1.437942     9A1     1.438706     4B1     1.514650
       4B2     1.552594    10A1     1.930398    11A1     2.361333
      12A1     3.107984     2A2     3.155581    13A1     3.155618
       5B1     3.215635     5B2     3.232491     6B1     3.568748
       6B2     3.619213     7B1     3.620642     7B2     3.632002
      14A1     3.777919    15A1     4.525529     8B1     5.077334
       8B2     5.077778     3A2     5.088495    16A1     5.089291
       9B1     5.272743     9B2     5.321874    17A1     5.671739
      18A1     6.115813     4A2     6.116247    10B1     6.263646
      10B2     6.323092    19A1     6.894252    20A1     7.464565

    Beta Occupied:

       1A1   -19.191052     2A1    -0.871120     3A1    -0.393286
       1B2    -0.306326

    Beta Virtual:

       1B1    -0.156058     4A1    -0.085463     5A1     0.239031
       2B2     0.522561     2B1     0.538303     6A1     0.592825
       3B2     0.686366     3B1     0.696660     7A1     0.802781
       8A1     1.063242     1A2     1.491076     9A1     1.497244
       4B2     1.562230     4B1     1.570248    10A1     1.943620
      11A1     2.337323    12A1     3.117419     2A2     3.132529
      13A1     3.132630     5B2     3.219919     5B1     3.223112
       6B1     3.589214     6B2     3.590612     7B2     3.646778
       7B1     3.677104    14A1     3.766166    15A1     4.540806
       3A2     5.141071    16A1     5.146583     8B2     5.148711
       8B1     5.151718     9B2     5.337075     9B1     5.343037
      17A1     5.707776     4A2     6.210862    18A1     6.225818
      10B2     6.347684    10B1     6.372880    19A1     6.934853
      20A1     7.521712

    Final Occupation by Irrep:
             A1    A2    B1    B2
    DOCC [     3,    0,    0,    1 ]
    SOCC [     0,    0,    1,    0 ]
    NA   [     3,    0,    1,    1 ]
    NB   [     3,    0,    0,    1 ]

  @DF-UKS Final Energy:   -75.68620267028294

   => Energetics <=

    Nuclear Repulsion Energy =              2.9317154870855888
    One-Electron Energy =                -110.0443480939584475
    Two-Electron Energy =                  38.5061727439768902
    DFT Exchange-Correlation Energy =      -7.0797428073869568
    Empirical Dispersion Energy =           0.0000000000000000
    VV10 Nonlocal Energy =                  0.0000000000000000
    Total Energy =                        -75.6862026702829382

  UHF NO Occupations:
  HONO-2 :    2 A1 1.9994556
  HONO-1 :    3 A1 1.9885830
  HONO-0 :    1 B1 1.0000000
  LUNO+0 :    4 A1 0.0114170
  LUNO+1 :    5 A1 0.0005444
  LUNO+2 :    2 B2 0.0001995
  LUNO+3 :    6 A1 0.0000006

Computation Completed

Properties will be evaluated at   0.000000,   0.000000,   0.000000 [a0]

Properties computed using the B3LYP density matrix

 Multipole Moments:

 ------------------------------------------------------------------------------------
     Multipole            Electronic (a.u.)      Nuclear  (a.u.)        Total (a.u.)
 ------------------------------------------------------------------------------------

 L = 1.  Multiply by 2.5417464519 to convert [e a0] to [Debye]
 Dipole X            :          0.0000000            0.0000000            0.0000000
 Dipole Y            :          0.0000000            0.0000000            0.0000000
 Dipole Z            :         -0.5699932            1.2730609            0.7030677
 Magnitude           :                                                    0.7030677

 L = 2.  Multiply by 1.3450342976 to convert [e a0^2] to [Debye ang]
 Quadrupole XX       :         -4.3074015            0.0000000           -4.3074015
 Quadrupole XY       :          0.0000000            0.0000000            0.0000000
 Quadrupole XZ       :          0.0000000            0.0000000            0.0000000
 Quadrupole YY       :         -5.2047091            0.0000000           -5.2047091
 Quadrupole YZ       :          0.0000000            0.0000000            0.0000000
 Quadrupole ZZ       :         -9.3081768            6.7989454           -2.5092315
 Traceless XX        :          1.9660276           -2.2663151           -0.3002875
 Traceless YY        :          1.0687200           -2.2663151           -1.1975951
 Traceless ZZ        :         -3.0347477            4.5326302            1.4978826

 ------------------------------------------------------------------------------------
  ==> Computing MBIS Charges <==

  Electron Count from Grid (Expected Number):  9.00000 ( 9.00000)
  Difference: -0.00000

  MBIS Charges: (a.u.)
   Center  Symbol  Z      Pop.       Charge
      1       O    8    8.279609   -0.279609
      2       H    1    0.720391    0.279609

  MBIS Dipoles: [e a0]
   Center  Symbol  Z        X           Y           Z
      1       O    8   -0.000000   -0.000000   -0.130897
      2       H    1    0.000000   -0.000000    0.070974

  MBIS Quadrupoles: [e a0^2]
   Center  Symbol  Z      XX        XY        XZ        YY        YZ        ZZ
      1       O    8   -3.7354    0.0000    0.0000   -4.5943    0.0000   -4.1996
      2       H    1   -0.5720    0.0000    0.0000   -0.6104   -0.0000   -0.5515

  MBIS Octupoles: [e a0^3]
   Center  Symbol  Z      XXX       XXY       XXZ       XYY       XYZ       XZZ       YYY       YYZ       YZZ       ZZZ
      1       O    8   -0.0000   -0.0000   -0.1810    0.0000    0.0000    0.0000   -0.0000   -0.1594    0.0000   -0.6758
      2       H    1    0.0000    0.0000    0.0209    0.0000    0.0000    0.0000    0.0000    0.0624   -0.0000    0.1046

  MBIS Radial Moments:
   Center  Symbol  Z      [a0^2]      [a0^3]      [a0^4]
      1       O    8   12.529321   24.357035   56.580634
      2       H    1    1.733962    3.843110   10.174933

  MBIS Valence Widths: [a0]
   Center  Symbol  Z     Width
      1       O    8    0.398186
      2       H    1    0.450092

*** tstop() called on Mac.lan at Sun Aug 10 17:12:05 2025
Module time:
	user time   =       3.43 seconds =       0.06 minutes
	system time =       1.74 seconds =       0.03 minutes
	total time  =          1 seconds =       0.02 minutes
Total time:
	user time   =      12.92 seconds =       0.22 minutes
	system time =       4.05 seconds =       0.07 minutes
	total time  =          2 seconds =       0.03 minutes

    Psi4 stopped on: Sunday, 10 August 2025 05:12PM
    Psi4 wall time for execution: 0:00:01.66

*** Psi4 exiting successfully. Buy a developer a beer!
