                               Psi4 1.9.1 release

  ==> Input File <==

--------------------------------------------------------------------------
molecule {
0 3
C           0.000000           0.000000           0.000000
C           0.000000           0.000000           1.880981
}

set {
basis              cc-pvtz
reference          uks
maxiter            500
DAMPING_PERCENTAGE 1
E_CONVERGENCE      1.0E-8
D_CONVERGENCE      1.0E-8
DIIS_MAX_VECS      400
MBIS_MAXITER       8000
guess              read
}

E, wfn = energy('b3lyp', restart_file='last_wfn', return_wfn=True)
properties('b3lyp','MBIS_CHARGES', wfn=wfn)
wfn.to_file('last_wfn')
--------------------------------------------------------------------------

    Molecular point group: d2h
  Charge       = 0
  Multiplicity = 3
  Basis Set: CC-PVTZ
    Blend: CC-PVTZ
  Basis Set: (CC-PVTZ AUX)
    Blend: CC-PVTZ-JKFIT
  @DF-UKS Final Energy:   -75.80701387696686
    Total Energy =                        -75.8070138769668773
 Dipole X            :          0.0000000            0.0000000            0.0000000
 Dipole Y            :          0.0000000            0.0000000            0.0000000
 Dipole Z            :          0.0000000           -0.0000000           -0.0000000
 Magnitude           :                                                    0.0000000
    Molecular point group: d2h

    Geometry (in Angstrom), charge = 0, multiplicity = 3:

       Center              X                  Y                   Z               Mass
    ------------   -----------------  -----------------  -----------------  -----------------
         C            0.000000000000     0.000000000000    -0.940490500000    12.000000000000
         C            0.000000000000     0.000000000000     0.940490500000    12.000000000000

  Charge       = 0
  Multiplicity = 3
  Basis Set: CC-PVTZ
    Blend: CC-PVTZ
  Basis Set: (CC-PVTZ AUX)
    Blend: CC-PVTZ-JKFIT

    Orbital Energies [Eh]
    ---------------------

    Alpha Occupied:

       1Ag   -10.350996     1B1u  -10.350878     2Ag    -0.683941
       2B1u   -0.529171     3Ag    -0.338135     1B3u   -0.298708
       1B2u   -0.271197

    Alpha Virtual:

       1B2g   -0.154458     1B3g   -0.127193     3B1u    0.000961
       4B1u    0.248362     2B3u    0.276849     2B2u    0.291561
       4Ag     0.291806     2B2g    0.333600     5Ag     0.338190
       2B3g    0.345913     3B3u    0.564611     1B1g    0.582596
       6Ag     0.582922     3B2u    0.584322     5B1u    0.601947
       1Au     0.742765     6B1u    0.743283     7Ag     0.934680
       3B2g    0.986670     3B3g    1.004290     7B1u    1.109284
       4B3u    1.836241     4B2u    1.857419     8Ag     1.867081
       4B2g    1.955024     4B3g    1.978661     8B1u    2.348066
       5B3u    2.390654     9Ag     2.412502     5B2u    2.412854
       2B1g    2.460488    10Ag     2.462844     6B3u    2.609226
       6B2u    2.609333     5B2g    2.664589     5B3g    2.664667
       9B1u    2.798532     2Au     2.798629     3B1g    2.868421
      11Ag     2.868431     6B2g    2.926444     6B3g    2.949433
       7B3u    2.957547    10B1u    2.976492     3Au     2.978204
       7B2u    2.980627    11B1u    3.021627    12Ag     3.319045
       7B2g    3.446833    12B1u    3.466846     7B3g    3.467811
      13Ag     3.927966    13B1u    4.970700

    Beta Occupied:

       1Ag   -10.336286     1B1u  -10.336254     2Ag    -0.622503
       2B1u   -0.455140     1B2u   -0.255856

    Beta Virtual:

       3Ag    -0.193200     1B3u   -0.172423     1B3g   -0.109827
       1B2g   -0.074894     3B1u    0.060366     4B1u    0.286661
       2B2u    0.297525     2B3u    0.309048     4Ag     0.322492
       2B3g    0.350861     2B2g    0.359733     5Ag     0.363029
       1B1g    0.606150     6Ag     0.608178     3B2u    0.611268
       3B3u    0.620426     5B1u    0.623202     1Au     0.764642
       6B1u    0.766578     7Ag     0.980797     3B3g    1.027403
       3B2g    1.032105     7B1u    1.149917     4B2u    1.872231
       4B3u    1.885965     8Ag     1.921188     4B3g    1.988631
       4B2g    2.001321     8B1u    2.394811     5B2u    2.442721
       5B3u    2.450921     9Ag     2.463630     2B1g    2.502789
      10Ag     2.505184     6B2u    2.638035     6B3u    2.638730
       5B3g    2.693264     5B2g    2.693948     2Au     2.830641
       9B1u    2.833625     3B1g    2.903643    11Ag     2.907879
       6B3g    2.981882     6B2g    2.997211     3Au     3.020916
       7B2u    3.021370    10B1u    3.023966     7B3u    3.036718
      11B1u    3.084934    12Ag     3.383481     7B3g    3.506862
      12B1u    3.513858     7B2g    3.514381    13Ag     3.961223
      13B1u    5.005266

    Final Occupation by Irrep:
             Ag   B1g   B2g   B3g    Au   B1u   B2u   B3u
    DOCC [     2,    0,    0,    0,    0,    2,    1,    0 ]
    SOCC [     1,    0,    0,    0,    0,    0,    0,    1 ]
    NA   [     3,    0,    0,    0,    0,    2,    1,    1 ]
    NB   [     2,    0,    0,    0,    0,    2,    1,    0 ]

  @DF-UKS Final Energy:   -75.80701387701151

   => Energetics <=

    Nuclear Repulsion Energy =             10.1278958076237906
    One-Electron Energy =                -120.9973252016389296
    Two-Electron Energy =                  43.4323508807264602
    DFT Exchange-Correlation Energy =      -8.3699353637228295
    Empirical Dispersion Energy =           0.0000000000000000
    VV10 Nonlocal Energy =                  0.0000000000000000
    Total Energy =                        -75.8070138770115136

  UHF NO Occupations:
  HONO-2 :    2B1u 1.9973334
  HONO-1 :    3 Ag 1.0000000
  HONO-0 :    1B3u 1.0000000
  LUNO+0 :    3B1u 0.0026666
  LUNO+1 :    4 Ag 0.0004673
  LUNO+2 :    2B2u 0.0001748
  LUNO+3 :    4B1u 0.0000006

Computation Completed

Properties will be evaluated at   0.000000,   0.000000,   0.000000 [a0]

Properties computed using the B3LYP density matrix

 Multipole Moments:

 ------------------------------------------------------------------------------------
     Multipole            Electronic (a.u.)      Nuclear  (a.u.)        Total (a.u.)
 ------------------------------------------------------------------------------------

 L = 1.  Multiply by 2.5417464519 to convert [e a0] to [Debye]
 Dipole X            :          0.0000000            0.0000000            0.0000000
 Dipole Y            :          0.0000000            0.0000000            0.0000000
 Dipole Z            :          0.0000000           -0.0000000           -0.0000000
 Magnitude           :                                                    0.0000000

 L = 2.  Multiply by 1.3450342976 to convert [e a0^2] to [Debye ang]
 Quadrupole XX       :         -8.7258889            0.0000000           -8.7258889
 Quadrupole XY       :          0.0000000            0.0000000            0.0000000
 Quadrupole XZ       :          0.0000000            0.0000000            0.0000000
 Quadrupole YY       :        -10.4350724            0.0000000          -10.4350724
 Quadrupole YZ       :          0.0000000            0.0000000            0.0000000
 Quadrupole ZZ       :        -46.2578113           37.9042412           -8.3535702
 Traceless XX        :         13.0803686          -12.6347471            0.4456216
 Traceless YY        :         11.3711852          -12.6347471           -1.2635619
 Traceless ZZ        :        -24.4515538           25.2694941            0.8179403

 ------------------------------------------------------------------------------------
  ==> Computing MBIS Charges <==

  Electron Count from Grid (Expected Number): 12.00000 (12.00000)
  Difference: -0.00000

  MBIS Charges: (a.u.)
   Center  Symbol  Z      Pop.       Charge
      1       C    6    6.000000    0.000000
      2       C    6    6.000000    0.000000

  MBIS Dipoles: [e a0]
   Center  Symbol  Z        X           Y           Z
      1       C    6   -0.000000    0.000000   -0.176164
      2       C    6   -0.000000    0.000000    0.176164

  MBIS Quadrupoles: [e a0^2]
   Center  Symbol  Z      XX        XY        XZ        YY        YZ        ZZ
      1       C    6   -4.3629    0.0000    0.0000   -5.2175   -0.0000   -4.8030
      2       C    6   -4.3629    0.0000   -0.0000   -5.2175    0.0000   -4.8030

  MBIS Octupoles: [e a0^3]
   Center  Symbol  Z      XXX       XXY       XXZ       XYY       XYZ       XZZ       YYY       YYZ       YZZ       ZZZ
      1       C    6   -0.0000   -0.0000   -0.3472   -0.0000   -0.0000   -0.0000    0.0000   -0.6114    0.0000   -1.2431
      2       C    6   -0.0000   -0.0000    0.3472   -0.0000    0.0000   -0.0000    0.0000    0.6114    0.0000    1.2431

  MBIS Radial Moments:
   Center  Symbol  Z      [a0^2]      [a0^3]      [a0^4]
      1       C    6   14.383447   36.322789   109.170786
      2       C    6   14.383447   36.322789   109.170786

  MBIS Valence Widths: [a0]
   Center  Symbol  Z     Width
      1       C    6    0.532113
      2       C    6    0.532113

*** tstop() called on Mac.lan at Sun Aug 10 17:05:00 2025
Module time:
	user time   =       4.08 seconds =       0.07 minutes
	system time =       1.74 seconds =       0.03 minutes
	total time  =          0 seconds =       0.00 minutes
Total time:
	user time   =      18.33 seconds =       0.31 minutes
	system time =       3.87 seconds =       0.06 minutes
	total time  =          2 seconds =       0.03 minutes

    Psi4 stopped on: Sunday, 10 August 2025 05:05PM
    Psi4 wall time for execution: 0:00:02.16

*** Psi4 exiting successfully. Buy a developer a beer!
