                               Psi4 1.9.1 release

  ==> Input File <==

--------------------------------------------------------------------------
molecule {
0 2
O           0.000000           0.000000           0.000000
N           0.000000           0.000000           0.750716
}

set {
basis              cc-pvtz
reference          uks
maxiter            500
DAMPING_PERCENTAGE 1
E_CONVERGENCE      1.0E-8
D_CONVERGENCE      1.0E-8
DIIS_MAX_VECS      400
MBIS_MAXITER       8000
guess              read
}

E, wfn = energy('b3lyp', restart_file='last_wfn', return_wfn=True)
properties('b3lyp','MBIS_CHARGES', wfn=wfn)
wfn.to_file('last_wfn')
--------------------------------------------------------------------------

    Molecular point group: c2v
  Charge       = 0
  Multiplicity = 2
  Basis Set: CC-PVTZ
    Blend: CC-PVTZ
  Basis Set: (CC-PVTZ AUX)
    Blend: CC-PVTZ-JKFIT
  @DF-UKS Final Energy:  -129.02143380182642
    Total Energy =                       -129.0214338018264186
 Dipole X            :          0.0000000            0.0000000            0.0000000
 Dipole Y            :          0.0000000            0.0000000            0.0000000
 Dipole Z            :         -0.5235249           -0.0028465           -0.5263713
 Magnitude           :                                                    0.5263713
    Molecular point group: c2v

    Geometry (in Angstrom), charge = 0, multiplicity = 2:

       Center              X                  Y                   Z               Mass
    ------------   -----------------  -----------------  -----------------  -----------------
         O            0.000000000000     0.000000000000    -0.350434551999    15.994914619570
         N            0.000000000000     0.000000000000     0.400281448001    14.003074004430

  Charge       = 0
  Multiplicity = 2
  Basis Set: CC-PVTZ
    Blend: CC-PVTZ
  Basis Set: (CC-PVTZ AUX)
    Blend: CC-PVTZ-JKFIT

    Orbital Energies [Eh]
    ---------------------

    Alpha Occupied:

       1A1   -19.264447     2A1   -14.394303     3A1    -1.581914
       1B1    -0.789954     1B2    -0.778176     4A1    -0.666460
       5A1    -0.501994     2B1     0.010771

    Alpha Virtual:

       2B2     0.106591     6A1     0.231176     3B1     0.345831
       3B2     0.346882     7A1     0.401774     8A1     0.528264
       4B1     0.623556     4B2     0.641597     1A2     0.880744
       9A1     0.882307    10A1     1.203358    11A1     1.321384
       5B1     1.363258     5B2     1.368534     2A2     1.653514
      12A1     1.655303    13A1     1.997610     6B1     2.042891
       6B2     2.047022     7B1     2.641969     7B2     2.647402
      14A1     2.989117    15A1     3.263271     8B1     3.680994
       8B2     3.681164    16A1     3.879002     3A2     3.957025
      17A1     3.958755     9B1     3.992622     9B2     3.998393
      10B1     4.301616    10B2     4.302933     4A2     4.353669
      18A1     4.356355    19A1     4.709425    11B1     5.059803
      11B2     5.059999    12B1     5.243506    12B2     5.243611
       5A2     6.069561    20A1     6.071158    21A1     6.119804
      13B2     6.666201    13B1     6.667378     6A2     6.744601
      22A1     6.745838    23A1     7.089408    24A1     8.223490
      14B1     8.672416    14B2     8.674974    25A1    10.448479
      26A1    25.276220

    Beta Occupied:

       1A1   -19.254994     2A1   -14.385954     3A1    -1.570713
       1B2    -0.770604     1B1    -0.736346     4A1    -0.641835
       5A1    -0.468340

    Beta Virtual:

       2B2     0.118469     2B1     0.150416     6A1     0.237431
       3B2     0.350168     3B1     0.369945     7A1     0.411978
       8A1     0.542788     4B2     0.648803     4B1     0.670630
       9A1     0.902520     1A2     0.902652    10A1     1.213918
      11A1     1.336697     5B2     1.372586     5B1     1.400764
       2A2     1.683448    12A1     1.683801    13A1     2.008605
       6B2     2.052062     6B1     2.074761     7B2     2.654529
       7B1     2.685229    14A1     3.009373    15A1     3.277578
       8B2     3.707297     8B1     3.707332    16A1     3.893423
       3A2     3.974473    17A1     3.975341     9B2     4.004751
       9B1     4.033930    10B2     4.306903    10B1     4.338527
      18A1     4.392022     4A2     4.392133    19A1     4.722443
      11B2     5.064166    11B1     5.092234    12B2     5.270314
      12B1     5.270331    20A1     6.099945     5A2     6.103728
      21A1     6.137851    13B2     6.669557    13B1     6.696827
       6A2     6.768894    22A1     6.769017    23A1     7.096926
      24A1     8.233815    14B2     8.680622    14B1     8.710945
      25A1    10.467132    26A1    25.288606

    Final Occupation by Irrep:
             A1    A2    B1    B2
    DOCC [     5,    0,    1,    1 ]
    SOCC [     0,    0,    1,    0 ]
    NA   [     5,    0,    2,    1 ]
    NB   [     5,    0,    1,    1 ]

  @DF-UKS Final Energy:  -129.02143380145097

   => Energetics <=

    Nuclear Repulsion Energy =             39.4742136806994921
    One-Electron Energy =                -251.8903360584554321
    Two-Electron Energy =                  96.3676330564268966
    DFT Exchange-Correlation Energy =     -12.9729444801219476
    Empirical Dispersion Energy =           0.0000000000000000
    VV10 Nonlocal Energy =                  0.0000000000000000
    Total Energy =                       -129.0214338014509678

  UHF NO Occupations:
  HONO-2 :    1 B1 1.9998573
  HONO-1 :    5 A1 1.9997679
  HONO-0 :    2 B1 1.0000000
  LUNO+0 :    6 A1 0.0002321
  LUNO+1 :    3 B1 0.0001427
  LUNO+2 :    7 A1 0.0000719
  LUNO+3 :    2 B2 0.0000085

Computation Completed

Properties will be evaluated at   0.000000,   0.000000,   0.000000 [a0]

Properties computed using the B3LYP density matrix

 Multipole Moments:

 ------------------------------------------------------------------------------------
     Multipole            Electronic (a.u.)      Nuclear  (a.u.)        Total (a.u.)
 ------------------------------------------------------------------------------------

 L = 1.  Multiply by 2.5417464519 to convert [e a0] to [Debye]
 Dipole X            :          0.0000000            0.0000000            0.0000000
 Dipole Y            :          0.0000000            0.0000000            0.0000000
 Dipole Z            :         -0.5235249           -0.0028465           -0.5263713
 Magnitude           :                                                    0.5263713

 L = 2.  Multiply by 1.3450342976 to convert [e a0^2] to [Debye ang]
 Quadrupole XX       :         -7.6954839            0.0000000           -7.6954839
 Quadrupole XY       :          0.0000000            0.0000000            0.0000000
 Quadrupole XZ       :          0.0000000            0.0000000            0.0000000
 Quadrupole YY       :         -6.3322553            0.0000000           -6.3322553
 Quadrupole YZ       :          0.0000000            0.0000000            0.0000000
 Quadrupole ZZ       :        -16.0916487            7.5135621           -8.5780866
 Traceless XX        :          2.3443120           -2.5045207           -0.1602086
 Traceless YY        :          3.7075406           -2.5045207            1.2030200
 Traceless ZZ        :         -6.0518527            5.0090414           -1.0428113

 ------------------------------------------------------------------------------------
  ==> Computing MBIS Charges <==

  Electron Count from Grid (Expected Number): 15.00000 (15.00000)
  Difference:  0.00000

  MBIS Charges: (a.u.)
   Center  Symbol  Z      Pop.       Charge
      1       O    8    7.726767    0.273233
      2       N    7    7.273235   -0.273235

  MBIS Dipoles: [e a0]
   Center  Symbol  Z        X           Y           Z
      1       O    8   -0.000000   -0.000000    0.119446
      2       N    7    0.000000   -0.000000   -0.258194

  MBIS Quadrupoles: [e a0^2]
   Center  Symbol  Z      XX        XY        XZ        YY        YZ        ZZ
      1       O    8   -2.9511    0.0000    0.0000   -2.6552   -0.0000   -3.2936
      2       N    7   -4.7443   -0.0000   -0.0000   -3.6771    0.0000   -4.6992

  MBIS Octupoles: [e a0^3]
   Center  Symbol  Z      XXX       XXY       XXZ       XYY       XYZ       XZZ       YYY       YYZ       YZZ       ZZZ
      1       O    8    0.0000   -0.0000    0.2304   -0.0000   -0.0000   -0.0000   -0.0000    0.1621   -0.0000    0.4080
      2       N    7    0.0000   -0.0000   -1.1249    0.0000   -0.0000    0.0000    0.0000   -0.3709    0.0000   -0.3872

  MBIS Radial Moments:
   Center  Symbol  Z      [a0^2]      [a0^3]      [a0^4]
      1       O    8    8.899959   15.237829   31.675664
      2       N    7   13.120545   29.011887   77.285672

  MBIS Valence Widths: [a0]
   Center  Symbol  Z     Width
      1       O    8    0.347156
      2       N    7    0.439211

*** tstop() called on Mac.lan at Sun Aug 10 17:20:24 2025
Module time:
	user time   =       4.18 seconds =       0.07 minutes
	system time =       2.18 seconds =       0.04 minutes
	total time  =          0 seconds =       0.00 minutes
Total time:
	user time   =      18.00 seconds =       0.30 minutes
	system time =       4.36 seconds =       0.07 minutes
	total time  =          2 seconds =       0.03 minutes

    Psi4 stopped on: Sunday, 10 August 2025 05:20PM
    Psi4 wall time for execution: 0:00:02.16

*** Psi4 exiting successfully. Buy a developer a beer!
