                               Psi4 1.9.1 release

  ==> Input File <==

--------------------------------------------------------------------------
molecule {
0 1
N           0.000000           0.000000           0.000000
N           0.000000           0.000000           1.095781
}

set {
basis              cc-pvtz
reference          uks
maxiter            500
DAMPING_PERCENTAGE 1
E_CONVERGENCE      1.0E-8
D_CONVERGENCE      1.0E-8
DIIS_MAX_VECS      400
MBIS_MAXITER       8000
guess              read
}

E, wfn = energy('b3lyp', restart_file='last_wfn', return_wfn=True)
properties('b3lyp','MBIS_CHARGES', wfn=wfn)
wfn.to_file('last_wfn')
--------------------------------------------------------------------------

    Molecular point group: d2h
  Charge       = 0
  Multiplicity = 1
  Basis Set: CC-PVTZ
    Blend: CC-PVTZ
  Basis Set: (CC-PVTZ AUX)
    Blend: CC-PVTZ-JKFIT
  @DF-UKS Final Energy:  -109.56835721020835
    Total Energy =                       -109.5683572102083474
 Dipole X            :          0.0000000            0.0000000            0.0000000
 Dipole Y            :          0.0000000            0.0000000            0.0000000
 Dipole Z            :          0.0000000            0.0000000            0.0000000
 Magnitude           :                                                    0.0000000
    Molecular point group: d2h

    Geometry (in Angstrom), charge = 0, multiplicity = 1:

       Center              X                  Y                   Z               Mass
    ------------   -----------------  -----------------  -----------------  -----------------
         N            0.000000000000     0.000000000000    -0.547890500000    14.003074004430
         N            0.000000000000     0.000000000000     0.547890500000    14.003074004430

  Charge       = 0
  Multiplicity = 1
  Basis Set: CC-PVTZ
    Blend: CC-PVTZ
  Basis Set: (CC-PVTZ AUX)
    Blend: CC-PVTZ-JKFIT

    Orbital Energies [Eh]
    ---------------------

    Alpha Occupied:

       1Ag   -14.421253     1B1u  -14.419445     2Ag    -1.129794
       2B1u   -0.555425     1B3u   -0.470083     1B2u   -0.470083
       3Ag    -0.434360

    Alpha Virtual:

       1B3g   -0.027324     1B2g   -0.027324     3B1u    0.293602
       2B3u    0.389124     2B2u    0.389124     4Ag     0.410021
       5Ag     0.486355     2B2g    0.532048     2B3g    0.532048
       4B1u    0.689473     1B1g    0.833570     6Ag     0.833570
       5B1u    0.869758     3B3u    1.095623     3B2u    1.095623
       1Au     1.265960     6B1u    1.265960     7Ag     1.680705
       3B2g    1.682170     3B3g    1.682170     7B1u    1.916557
       4B3u    2.738455     4B2u    2.738455     8Ag     2.912889
       4B3g    3.081373     4B2g    3.081373     8B1u    3.358382
       2B1g    3.461656     9Ag     3.461656     5B2u    3.592299
       5B3u    3.592299     6B2u    3.598109     6B3u    3.598109
      10Ag     3.960480     5B3g    4.078184     5B2g    4.078184
       3B1g    4.349312    11Ag     4.349316     6B3g    4.474209
       6B2g    4.474209     2Au     4.482974     9B1u    4.482977
      10B1u    4.626751    11B1u    4.915830     3Au     4.915830
       7B2u    4.997562     7B3u    4.997562    12Ag     5.105719
      12B1u    5.693830     7B3g    6.415111     7B2g    6.415111
      13Ag     6.477586    13B1u   15.991946

    Beta Occupied:

       1Ag   -14.421253     1B1u  -14.419445     2Ag    -1.129794
       2B1u   -0.555425     1B3u   -0.470083     1B2u   -0.470083
       3Ag    -0.434360

    Beta Virtual:

       1B3g   -0.027324     1B2g   -0.027324     3B1u    0.293602
       2B3u    0.389124     2B2u    0.389124     4Ag     0.410021
       5Ag     0.486355     2B2g    0.532048     2B3g    0.532048
       4B1u    0.689473     1B1g    0.833570     6Ag     0.833570
       5B1u    0.869758     3B3u    1.095623     3B2u    1.095623
       1Au     1.265960     6B1u    1.265960     7Ag     1.680705
       3B2g    1.682170     3B3g    1.682170     7B1u    1.916557
       4B3u    2.738455     4B2u    2.738455     8Ag     2.912889
       4B3g    3.081373     4B2g    3.081373     8B1u    3.358382
       2B1g    3.461656     9Ag     3.461656     5B2u    3.592299
       5B3u    3.592299     6B3u    3.598109     6B2u    3.598109
      10Ag     3.960480     5B3g    4.078184     5B2g    4.078184
       3B1g    4.349312    11Ag     4.349316     6B3g    4.474209
       6B2g    4.474209     2Au     4.482974     9B1u    4.482977
      10B1u    4.626751    11B1u    4.915830     3Au     4.915830
       7B2u    4.997562     7B3u    4.997562    12Ag     5.105719
      12B1u    5.693830     7B3g    6.415111     7B2g    6.415111
      13Ag     6.477586    13B1u   15.991946

    Final Occupation by Irrep:
             Ag   B1g   B2g   B3g    Au   B1u   B2u   B3u
    DOCC [     3,    0,    0,    0,    0,    2,    1,    1 ]
    SOCC [     0,    0,    0,    0,    0,    0,    0,    0 ]
    NA   [     3,    0,    0,    0,    0,    2,    1,    1 ]
    NB   [     3,    0,    0,    0,    0,    2,    1,    1 ]

  @DF-UKS Final Energy:  -109.56835721015926

   => Energetics <=

    Nuclear Repulsion Energy =             23.6631985066632851
    One-Electron Energy =                -194.6887460891058197
    Two-Electron Energy =                  72.5402988408924472
    DFT Exchange-Correlation Energy =     -11.0831084686091810
    Empirical Dispersion Energy =           0.0000000000000000
    VV10 Nonlocal Energy =                  0.0000000000000000
    Total Energy =                       -109.5683572101592631

  UHF NO Occupations:
  HONO-2 :    1B1u 2.0000000
  HONO-1 :    2B1u 2.0000000
  HONO-0 :    3 Ag 2.0000000
  LUNO+0 :    4 Ag 0.0000000
  LUNO+1 :    5 Ag 0.0000000
  LUNO+2 :    6 Ag 0.0000000
  LUNO+3 :    2B3u 0.0000000

Computation Completed

Properties will be evaluated at   0.000000,   0.000000,   0.000000 [a0]

Properties computed using the B3LYP density matrix

 Multipole Moments:

 ------------------------------------------------------------------------------------
     Multipole            Electronic (a.u.)      Nuclear  (a.u.)        Total (a.u.)
 ------------------------------------------------------------------------------------

 L = 1.  Multiply by 2.5417464519 to convert [e a0] to [Debye]
 Dipole X            :          0.0000000            0.0000000            0.0000000
 Dipole Y            :          0.0000000            0.0000000            0.0000000
 Dipole Z            :          0.0000000            0.0000000            0.0000000
 Magnitude           :                                                    0.0000000

 L = 2.  Multiply by 1.3450342976 to convert [e a0^2] to [Debye ang]
 Quadrupole XX       :         -7.5369802            0.0000000           -7.5369802
 Quadrupole XY       :          0.0000000            0.0000000            0.0000000
 Quadrupole XZ       :          0.0000000            0.0000000            0.0000000
 Quadrupole YY       :         -7.5369802            0.0000000           -7.5369802
 Quadrupole YZ       :          0.0000000            0.0000000            0.0000000
 Quadrupole ZZ       :        -23.7395104           15.0076713           -8.7318390
 Traceless XX        :          5.4008434           -5.0025571            0.3982863
 Traceless YY        :          5.4008434           -5.0025571            0.3982863
 Traceless ZZ        :        -10.8016868           10.0051142           -0.7965725

 ------------------------------------------------------------------------------------
  ==> Computing MBIS Charges <==

  Electron Count from Grid (Expected Number): 14.00000 (14.00000)
  Difference: -0.00000

  MBIS Charges: (a.u.)
   Center  Symbol  Z      Pop.       Charge
      1       N    7    7.000000    0.000000
      2       N    7    7.000000    0.000000

  MBIS Dipoles: [e a0]
   Center  Symbol  Z        X           Y           Z
      1       N    7    0.000000   -0.000000    0.065180
      2       N    7   -0.000000   -0.000000   -0.065180

  MBIS Quadrupoles: [e a0^2]
   Center  Symbol  Z      XX        XY        XZ        YY        YZ        ZZ
      1       N    7   -3.7685   -0.0000   -0.0000   -3.7685    0.0000   -4.2310
      2       N    7   -3.7685    0.0000    0.0000   -3.7685   -0.0000   -4.2310

  MBIS Octupoles: [e a0^3]
   Center  Symbol  Z      XXX       XXY       XXZ       XYY       XYZ       XZZ       YYY       YYZ       YZZ       ZZZ
      1       N    7   -0.0000   -0.0000    0.0443    0.0000    0.0000    0.0000   -0.0000    0.0443   -0.0000    0.1842
      2       N    7   -0.0000   -0.0000   -0.0443   -0.0000   -0.0000    0.0000   -0.0000   -0.0443   -0.0000   -0.1842

  MBIS Radial Moments:
   Center  Symbol  Z      [a0^2]      [a0^3]      [a0^4]
      1       N    7   11.767931   24.253015   59.657819
      2       N    7   11.767931   24.253015   59.657819

  MBIS Valence Widths: [a0]
   Center  Symbol  Z     Width
      1       N    7    0.430442
      2       N    7    0.430442

*** tstop() called on Mac.lan at Sun Aug 10 17:05:33 2025
Module time:
	user time   =       4.50 seconds =       0.07 minutes
	system time =       2.16 seconds =       0.04 minutes
	total time  =          1 seconds =       0.02 minutes
Total time:
	user time   =      16.95 seconds =       0.28 minutes
	system time =       4.09 seconds =       0.07 minutes
	total time  =          2 seconds =       0.03 minutes

    Psi4 stopped on: Sunday, 10 August 2025 05:05PM
    Psi4 wall time for execution: 0:00:02.06

*** Psi4 exiting successfully. Buy a developer a beer!
