                               Psi4 1.9.1 release

  ==> Input File <==

--------------------------------------------------------------------------
molecule {
0 2
O           0.000000           0.000000           0.000000
N           0.000000           0.000000           1.613688
}

set {
basis              cc-pvtz
reference          uks
maxiter            500
DAMPING_PERCENTAGE 1
E_CONVERGENCE      1.0E-8
D_CONVERGENCE      1.0E-8
DIIS_MAX_VECS      400
MBIS_MAXITER       8000
guess              read
}

E, wfn = energy('b3lyp', restart_file='last_wfn', return_wfn=True)
properties('b3lyp','MBIS_CHARGES', wfn=wfn)
wfn.to_file('last_wfn')
--------------------------------------------------------------------------

    Molecular point group: c2v
  Charge       = 0
  Multiplicity = 2
  Basis Set: CC-PVTZ
    Blend: CC-PVTZ
  Basis Set: (CC-PVTZ AUX)
    Blend: CC-PVTZ-JKFIT
  @DF-UKS Final Energy:  -129.79273374108379
    Total Energy =                       -129.7927337410837936
 Dipole X            :          0.0000000            0.0000000            0.0000000
 Dipole Y            :          0.0000000            0.0000000            0.0000000
 Dipole Z            :          0.2646570           -0.0061185            0.2585384
 Magnitude           :                                                    0.2585384
    Molecular point group: c2v

    Geometry (in Angstrom), charge = 0, multiplicity = 2:

       Center              X                  Y                   Z               Mass
    ------------   -----------------  -----------------  -----------------  -----------------
         O            0.000000000000     0.000000000000    -0.753270253126    15.994914619570
         N            0.000000000000     0.000000000000     0.860417746874    14.003074004430

  Charge       = 0
  Multiplicity = 2
  Basis Set: CC-PVTZ
    Blend: CC-PVTZ
  Basis Set: (CC-PVTZ AUX)
    Blend: CC-PVTZ-JKFIT

    Orbital Energies [Eh]
    ---------------------

    Alpha Occupied:

       1A1   -19.246931     2A1   -14.508895     3A1    -0.992426
       4A1    -0.776388     5A1    -0.432300     1B1    -0.426966
       1B2    -0.401670     2B1    -0.315822

    Alpha Virtual:

       2B2    -0.188656     6A1    -0.050344     7A1     0.402420
       3B1     0.415414     3B2     0.415841     8A1     0.497363
       9A1     0.586437     4B1     0.602126     4B2     0.623119
       1A2     0.945046    10A1     0.945329     5B2     0.964678
       5B1     0.968042    11A1     1.076077    12A1     1.393724
       2A2     1.472182    13A1     1.476486     6B1     1.738670
       6B2     1.743928    14A1     1.994928     7B1     2.713361
       7B2     2.714475    15A1     2.973682     8B1     3.488397
      16A1     3.506691     8B2     3.514290     3A2     3.768818
      17A1     3.769107     9B1     3.769113     9B2     3.769125
      10B1     3.879966    10B2     3.883247    18A1     4.177464
       4A2     4.278507    19A1     4.278973    11B2     4.420686
      11B1     4.421389    20A1     4.902294    12B1     5.095462
      12B2     5.097144     5A2     5.120316    21A1     5.124286
      22A1     5.159153    13B1     5.400600    13B2     5.406934
      23A1     5.872007     6A2     6.161530    24A1     6.172518
      14B1     6.408277    14B2     6.431349    25A1     7.109008
      26A1     7.902703

    Beta Occupied:

       1A1   -19.266624     2A1   -14.470899     3A1    -1.021020
       4A1    -0.694278     1B2    -0.440632     5A1    -0.425844
       1B1    -0.375756

    Beta Virtual:

       2B2    -0.153840     2B1    -0.137733     6A1    -0.030563
       7A1     0.416766     3B2     0.462541     3B1     0.473899
       8A1     0.521963     4B2     0.580254     9A1     0.591270
       4B1     0.608117     5B2     0.987350     5B1     1.002641
       1A2     1.018953    10A1     1.019001    11A1     1.064147
      12A1     1.413309     2A2     1.442995    13A1     1.447808
       6B2     1.721909     6B1     1.751708    14A1     1.992152
       7B2     2.806603     7B1     2.818251    15A1     2.990340
       8B2     3.448114     8B1     3.498639    16A1     3.535405
       3A2     3.845347    17A1     3.845384     9B2     3.878016
       9B1     3.878136    10B2     3.903272    10B1     3.926068
      18A1     4.198049     4A2     4.424610    19A1     4.424635
      11B2     4.496904    11B1     4.510010    20A1     4.917229
      12B2     5.049127    12B1     5.049281     5A2     5.087454
      21A1     5.089747    22A1     5.230580    13B2     5.360410
      13B1     5.401600    23A1     5.852964     6A2     6.101463
      24A1     6.102330    14B2     6.351038    14B1     6.403890
      25A1     7.095555    26A1     7.867251

    Final Occupation by Irrep:
             A1    A2    B1    B2
    DOCC [     5,    0,    1,    1 ]
    SOCC [     0,    0,    1,    0 ]
    NA   [     5,    0,    2,    1 ]
    NB   [     5,    0,    1,    1 ]

  @DF-UKS Final Energy:  -129.79273373992982

   => Energetics <=

    Nuclear Repulsion Energy =             18.3640975191734697
    One-Electron Energy =                -213.6951985636014513
    Two-Electron Energy =                  77.8000876617644366
    DFT Exchange-Correlation Energy =     -12.2617203572662685
    Empirical Dispersion Energy =           0.0000000000000000
    VV10 Nonlocal Energy =                  0.0000000000000000
    Total Energy =                       -129.7927337399298153

  UHF NO Occupations:
  HONO-2 :    5 A1 1.9898919
  HONO-1 :    1 B2 1.6196769
  HONO-0 :    2 B1 1.0000000
  LUNO+0 :    2 B2 0.3803231
  LUNO+1 :    6 A1 0.0101081
  LUNO+2 :    7 A1 0.0007936
  LUNO+3 :    3 B1 0.0004471

Computation Completed

Properties will be evaluated at   0.000000,   0.000000,   0.000000 [a0]

Properties computed using the B3LYP density matrix

 Multipole Moments:

 ------------------------------------------------------------------------------------
     Multipole            Electronic (a.u.)      Nuclear  (a.u.)        Total (a.u.)
 ------------------------------------------------------------------------------------

 L = 1.  Multiply by 2.5417464519 to convert [e a0] to [Debye]
 Dipole X            :          0.0000000            0.0000000            0.0000000
 Dipole Y            :          0.0000000            0.0000000            0.0000000
 Dipole Z            :          0.2646572           -0.0061185            0.2585386
 Magnitude           :                                                    0.2585386

 L = 2.  Multiply by 1.3450342976 to convert [e a0^2] to [Debye ang]
 Quadrupole XX       :         -8.2831920            0.0000000           -8.2831920
 Quadrupole XY       :          0.0000000            0.0000000            0.0000000
 Quadrupole XZ       :          0.0000000            0.0000000            0.0000000
 Quadrupole YY       :         -7.4931955            0.0000000           -7.4931955
 Quadrupole YZ       :          0.0000000            0.0000000            0.0000000
 Quadrupole ZZ       :        -42.7141097           34.7163192           -7.9977905
 Traceless XX        :         11.2136404          -11.5721064           -0.3584660
 Traceless YY        :         12.0036369          -11.5721064            0.4315305
 Traceless ZZ        :        -23.2172773           23.1442128           -0.0730645

 ------------------------------------------------------------------------------------
  ==> Computing MBIS Charges <==

  Electron Count from Grid (Expected Number): 15.00000 (15.00000)
  Difference: -0.00000

  MBIS Charges: (a.u.)
   Center  Symbol  Z      Pop.       Charge
      1       O    8    8.116812   -0.116812
      2       N    7    6.883187    0.116813

  MBIS Dipoles: [e a0]
   Center  Symbol  Z        X           Y           Z
      1       O    8   -0.000000    0.000000   -0.019876
      2       N    7   -0.000000   -0.000000   -0.077799

  MBIS Quadrupoles: [e a0^2]
   Center  Symbol  Z      XX        XY        XZ        YY        YZ        ZZ
      1       O    8   -4.2288   -0.0000   -0.0000   -3.6529   -0.0000   -3.8692
      2       N    7   -4.0544   -0.0000   -0.0000   -3.8403   -0.0000   -4.0043

  MBIS Octupoles: [e a0^3]
   Center  Symbol  Z      XXX       XXY       XXZ       XYY       XYZ       XZZ       YYY       YYZ       YZZ       ZZZ
      1       O    8    0.0000   -0.0000    0.0292   -0.0000   -0.0000   -0.0000   -0.0000   -0.0701   -0.0000   -0.2880
      2       N    7    0.0000    0.0000    0.0134   -0.0000    0.0000   -0.0000   -0.0000    0.0021   -0.0000    0.2607

  MBIS Radial Moments:
   Center  Symbol  Z      [a0^2]      [a0^3]      [a0^4]
      1       O    8   11.750859   22.345454   50.865250
      2       N    7   11.899037   24.993105   62.629696

  MBIS Valence Widths: [a0]
   Center  Symbol  Z     Width
      1       O    8    0.390325
      2       N    7    0.438477

*** tstop() called on Mac.lan at Sun Aug 10 17:21:33 2025
Module time:
	user time   =       3.63 seconds =       0.06 minutes
	system time =       1.79 seconds =       0.03 minutes
	total time  =          0 seconds =       0.00 minutes
Total time:
	user time   =      19.01 seconds =       0.32 minutes
	system time =       4.10 seconds =       0.07 minutes
	total time  =          2 seconds =       0.03 minutes

    Psi4 stopped on: Sunday, 10 August 2025 05:21PM
    Psi4 wall time for execution: 0:00:02.24

*** Psi4 exiting successfully. Buy a developer a beer!
