                               Psi4 1.9.1 release

  ==> Input File <==

--------------------------------------------------------------------------
molecule {
0 3
O           0.000000           0.000000           0.000000
O           0.000000           0.000000           1.387932
}

set {
basis              cc-pvtz
reference          uks
maxiter            500
DAMPING_PERCENTAGE 1
E_CONVERGENCE      1.0E-8
D_CONVERGENCE      1.0E-8
DIIS_MAX_VECS      400
MBIS_MAXITER       8000
guess              read
}

E, wfn = energy('b3lyp', restart_file='last_wfn', return_wfn=True)
properties('b3lyp','MBIS_CHARGES', wfn=wfn)
wfn.to_file('last_wfn')
--------------------------------------------------------------------------

    Molecular point group: d2h
  Charge       = 0
  Multiplicity = 3
  Basis Set: CC-PVTZ
    Blend: CC-PVTZ
  Basis Set: (CC-PVTZ AUX)
    Blend: CC-PVTZ-JKFIT
  @DF-UKS Final Energy:  -150.34885930136255
    Total Energy =                       -150.3488593013625518
 Dipole X            :          0.0000000            0.0000000            0.0000000
 Dipole Y            :          0.0000000            0.0000000            0.0000000
 Dipole Z            :          0.0000000            0.0000000            0.0000000
 Magnitude           :                                                    0.0000000
    Molecular point group: d2h

    Geometry (in Angstrom), charge = 0, multiplicity = 3:

       Center              X                  Y                   Z               Mass
    ------------   -----------------  -----------------  -----------------  -----------------
         O            0.000000000000     0.000000000000    -0.693966000000    15.994914619570
         O            0.000000000000     0.000000000000     0.693966000000    15.994914619570

  Charge       = 0
  Multiplicity = 3
  Basis Set: CC-PVTZ
    Blend: CC-PVTZ
  Basis Set: (CC-PVTZ AUX)
    Blend: CC-PVTZ-JKFIT

    Orbital Energies [Eh]
    ---------------------

    Alpha Occupied:

       1Ag   -19.307971     1B1u  -19.307897     2Ag    -1.194185
       2B1u   -0.894450     3Ag    -0.528386     1B3u   -0.521109
       1B2u   -0.521109     1B2g   -0.360634     1B3g   -0.360634

    Alpha Virtual:

       3B1u   -0.000865     4B1u    0.470503     2B2u    0.503261
       2B3u    0.503261     4Ag     0.568678     2B2g    0.606433
       2B3g    0.606433     5Ag     0.675310     5B1u    1.170000
       3B2u    1.209975     3B3u    1.209975     6Ag     1.251217
       1B1g    1.251218     6B1u    1.533722     1Au     1.533722
       7Ag     1.838110     3B2g    2.022268     3B3g    2.022268
       7B1u    2.189878     4B2u    3.367948     4B3u    3.367948
       8Ag     3.421027     4B3g    3.583029     4B2g    3.583029
       8B1u    4.399420     5B2u    4.607828     5B3u    4.607828
       9Ag     4.709166     2B1g    4.709167    10Ag     4.717290
       6B3u    4.959080     6B2u    4.959080     5B2g    5.054497
       5B3g    5.054497     9B1u    5.343053     2Au     5.343054
       6B2g    5.873361     6B3g    5.873361     3B1g    5.982845
      11Ag     5.982852    10B1u    6.142272     3Au     6.153468
      11B1u    6.153476     7B3u    6.161452     7B2u    6.161452
      12Ag     6.588280    12B1u    6.644354     7B2g    6.816009
       7B3g    6.816009    13Ag     7.456275    13B1u    9.277820

    Beta Occupied:

       1Ag   -19.277770     1B1u  -19.277604     2Ag    -1.130229
       2B1u   -0.804626     3Ag    -0.495253     1B3u   -0.414636
       1B2u   -0.414636

    Beta Virtual:

       1B2g   -0.169262     1B3g   -0.169262     3B1u    0.038884
       4B1u    0.483686     2B2u    0.543101     2B3u    0.543101
       4Ag     0.580918     2B2g    0.645937     2B3g    0.645937
       5Ag     0.695419     5B1u    1.202661     3B2u    1.235061
       3B3u    1.235061     6Ag     1.296440     1B1g    1.296440
       6B1u    1.592809     1Au     1.592809     7Ag     1.869702
       3B2g    2.057157     3B3g    2.057157     7B1u    2.209650
       8Ag     3.439817     4B2u    3.441120     4B3u    3.441120
       4B3g    3.660249     4B2g    3.660249     8B1u    4.432970
       5B2u    4.643035     5B3u    4.643035     9Ag     4.752526
      10Ag     4.754592     2B1g    4.754592     6B3u    5.031802
       6B2u    5.031802     5B2g    5.128698     5B3g    5.128698
       9B1u    5.395649     2Au     5.395651     6B2g    5.923843
       6B3g    5.923843     3B1g    6.092307    11Ag     6.092312
      10B1u    6.174922     7B3u    6.222052     7B2u    6.222052
       3Au     6.259579    11B1u    6.259586    12Ag     6.614121
      12B1u    6.685682     7B2g    6.861399     7B3g    6.861399
      13Ag     7.516101    13B1u    9.317616

    Final Occupation by Irrep:
             Ag   B1g   B2g   B3g    Au   B1u   B2u   B3u
    DOCC [     3,    0,    0,    0,    0,    2,    1,    1 ]
    SOCC [     0,    0,    1,    1,    0,    0,    0,    0 ]
    NA   [     3,    0,    1,    1,    0,    2,    1,    1 ]
    NB   [     3,    0,    0,    0,    0,    2,    1,    1 ]

  @DF-UKS Final Energy:  -150.34885930128064

   => Energetics <=

    Nuclear Repulsion Energy =             24.4012973855203299
    One-Electron Energy =                -254.8655187446673551
    Two-Electron Energy =                  93.7860412665910133
    DFT Exchange-Correlation Energy =     -13.6706792087246463
    Empirical Dispersion Energy =           0.0000000000000000
    VV10 Nonlocal Energy =                  0.0000000000000000
    Total Energy =                       -150.3488593012806405

  UHF NO Occupations:
  HONO-2 :    1B2u 1.9980431
  HONO-1 :    1B2g 1.0000000
  HONO-0 :    1B3g 1.0000000
  LUNO+0 :    2B2u 0.0019569
  LUNO+1 :    2B3u 0.0019569
  LUNO+2 :    3B1u 0.0007090
  LUNO+3 :    4 Ag 0.0003083

Computation Completed

Properties will be evaluated at   0.000000,   0.000000,   0.000000 [a0]

Properties computed using the B3LYP density matrix

 Multipole Moments:

 ------------------------------------------------------------------------------------
     Multipole            Electronic (a.u.)      Nuclear  (a.u.)        Total (a.u.)
 ------------------------------------------------------------------------------------

 L = 1.  Multiply by 2.5417464519 to convert [e a0] to [Debye]
 Dipole X            :          0.0000000            0.0000000            0.0000000
 Dipole Y            :          0.0000000            0.0000000            0.0000000
 Dipole Z            :          0.0000000            0.0000000            0.0000000
 Magnitude           :                                                    0.0000000

 L = 2.  Multiply by 1.3450342976 to convert [e a0^2] to [Debye ang]
 Quadrupole XX       :         -7.5858299            0.0000000           -7.5858299
 Quadrupole XY       :          0.0000000            0.0000000            0.0000000
 Quadrupole XZ       :          0.0000000            0.0000000            0.0000000
 Quadrupole YY       :         -7.5858299            0.0000000           -7.5858299
 Quadrupole YZ       :          0.0000000            0.0000000            0.0000000
 Quadrupole ZZ       :        -34.9933557           27.5165577           -7.4767979
 Traceless XX        :          9.1358419           -9.1721859           -0.0363440
 Traceless YY        :          9.1358419           -9.1721859           -0.0363440
 Traceless ZZ        :        -18.2716839           18.3443718            0.0726880

 ------------------------------------------------------------------------------------
  ==> Computing MBIS Charges <==

  Electron Count from Grid (Expected Number): 16.00000 (16.00000)
  Difference: -0.00000

  MBIS Charges: (a.u.)
   Center  Symbol  Z      Pop.       Charge
      1       O    8    7.999999    0.000001
      2       O    8    7.999999    0.000001

  MBIS Dipoles: [e a0]
   Center  Symbol  Z        X           Y           Z
      1       O    8   -0.000000    0.000000    0.031622
      2       O    8   -0.000000    0.000000   -0.031622

  MBIS Quadrupoles: [e a0^2]
   Center  Symbol  Z      XX        XY        XZ        YY        YZ        ZZ
      1       O    8   -3.7929    0.0000    0.0000   -3.7929   -0.0000   -3.6555
      2       O    8   -3.7929   -0.0000   -0.0000   -3.7929    0.0000   -3.6555

  MBIS Octupoles: [e a0^3]
   Center  Symbol  Z      XXX       XXY       XXZ       XYY       XYZ       XZZ       YYY       YYZ       YZZ       ZZZ
      1       O    8   -0.0000   -0.0000    0.0054   -0.0000   -0.0000   -0.0000    0.0000    0.0054    0.0000   -0.2762
      2       O    8   -0.0000   -0.0000   -0.0054    0.0000    0.0000   -0.0000    0.0000   -0.0054    0.0000    0.2762

  MBIS Radial Moments:
   Center  Symbol  Z      [a0^2]      [a0^3]      [a0^4]
      1       O    8   11.241292   21.103377   47.516859
      2       O    8   11.241292   21.103377   47.516859

  MBIS Valence Widths: [a0]
   Center  Symbol  Z     Width
      1       O    8    0.384977
      2       O    8    0.384977

*** tstop() called on Mac.lan at Sun Aug 10 17:01:51 2025
Module time:
	user time   =       3.41 seconds =       0.06 minutes
	system time =       2.64 seconds =       0.04 minutes
	total time  =          1 seconds =       0.02 minutes
Total time:
	user time   =      15.03 seconds =       0.25 minutes
	system time =       4.94 seconds =       0.08 minutes
	total time  =          2 seconds =       0.03 minutes

    Psi4 stopped on: Sunday, 10 August 2025 05:01PM
    Psi4 wall time for execution: 0:00:01.95

*** Psi4 exiting successfully. Buy a developer a beer!
