                               Psi4 1.9.1 release

  ==> Input File <==

--------------------------------------------------------------------------
molecule {
0 3
O           0.000000           0.000000           0.000000
O           0.000000           0.000000           1.055714
}

set {
basis              cc-pvtz
reference          uks
maxiter            500
DAMPING_PERCENTAGE 1
E_CONVERGENCE      1.0E-8
D_CONVERGENCE      1.0E-8
DIIS_MAX_VECS      400
MBIS_MAXITER       8000
guess              read
}

E, wfn = energy('b3lyp', restart_file='last_wfn', return_wfn=True)
properties('b3lyp','MBIS_CHARGES', wfn=wfn)
wfn.to_file('last_wfn')
--------------------------------------------------------------------------

    Molecular point group: d2h
  Charge       = 0
  Multiplicity = 3
  Basis Set: CC-PVTZ
    Blend: CC-PVTZ
  Basis Set: (CC-PVTZ AUX)
    Blend: CC-PVTZ-JKFIT
  @DF-UKS Final Energy:  -150.33394094631069
    Total Energy =                       -150.3339409463106904
 Dipole X            :          0.0000000            0.0000000            0.0000000
 Dipole Y            :          0.0000000            0.0000000            0.0000000
 Dipole Z            :          0.0000000            0.0000000            0.0000000
 Magnitude           :                                                    0.0000000
    Molecular point group: d2h

    Geometry (in Angstrom), charge = 0, multiplicity = 3:

       Center              X                  Y                   Z               Mass
    ------------   -----------------  -----------------  -----------------  -----------------
         O            0.000000000000     0.000000000000    -0.527857000000    15.994914619570
         O            0.000000000000     0.000000000000     0.527857000000    15.994914619570

  Charge       = 0
  Multiplicity = 3
  Basis Set: CC-PVTZ
    Blend: CC-PVTZ
  Basis Set: (CC-PVTZ AUX)
    Blend: CC-PVTZ-JKFIT

    Orbital Energies [Eh]
    ---------------------

    Alpha Occupied:

       1Ag   -19.269292     1B1u  -19.268574     2Ag    -1.446395
       2B1u   -0.793192     1B3u   -0.629161     1B2u   -0.629161
       3Ag    -0.577332     1B2g   -0.252376     1B3g   -0.252376

    Alpha Virtual:

       3B1u    0.308564     2B3u    0.478645     2B2u    0.478645
       4Ag     0.526022     2B2g    0.620383     2B3g    0.620383
       4B1u    0.643514     5Ag     0.649665     6Ag     1.162653
       1B1g    1.162653     5B1u    1.165457     3B3u    1.386791
       3B2u    1.386791     1Au     1.663756     6B1u    1.663756
       7Ag     2.187677     3B2g    2.234419     3B3g    2.234419
       7B1u    2.239592     4B2u    3.410172     4B3u    3.410172
       8Ag     3.665093     4B2g    3.783491     4B3g    3.783491
       2B1g    4.505508     9Ag     4.505509     8B1u    4.543589
       5B2u    4.704917     5B3u    4.704917     6B3u    4.771302
       6B2u    4.771302    10Ag     5.145023     5B3g    5.221688
       5B2g    5.221688     9B1u    5.737309     3B1g    5.988019
      11Ag     5.988020    10B1u    6.010939     2Au     6.010939
       3Au     6.264580    11B1u    6.264582     6B2g    6.266331
       6B3g    6.266331     7B3u    6.598462     7B2u    6.598462
      12Ag     7.027578    12B1u    7.187710     7B3g    7.801710
       7B2g    7.801710    13Ag     7.805065    13B1u   16.718452

    Beta Occupied:

       1Ag   -19.239210     1B1u  -19.238303     2Ag    -1.397681
       2B1u   -0.705794     3Ag    -0.532900     1B2u   -0.531517
       1B3u   -0.531517

    Beta Virtual:

       1B2g   -0.056617     1B3g   -0.056617     3B1u    0.330035
       2B3u    0.509147     2B2u    0.509147     4Ag     0.533681
       2B2g    0.665429     2B3g    0.665429     5Ag     0.673697
       4B1u    0.682245     5B1u    1.197690     6Ag     1.202909
       1B1g    1.202909     3B3u    1.421704     3B2u    1.421704
       6B1u    1.727608     1Au     1.727608     7Ag     2.215312
       7B1u    2.263685     3B2g    2.272764     3B3g    2.272764
       4B2u    3.486151     4B3u    3.486151     8Ag     3.688311
       4B2g    3.858560     4B3g    3.858560     2B1g    4.541972
       9Ag     4.541973     8B1u    4.584269     5B3u    4.737581
       5B2u    4.737581     6B3u    4.838543     6B2u    4.838543
      10Ag     5.174840     5B3g    5.297089     5B2g    5.297089
       9B1u    5.776098     2Au     6.085985    10B1u    6.085986
       3B1g    6.095892    11Ag     6.095893     6B2g    6.321216
       6B3g    6.321216     3Au     6.349026    11B1u    6.349029
       7B3u    6.650715     7B2u    6.650715    12Ag     7.087724
      12B1u    7.220773    13Ag     7.829323     7B3g    7.842340
       7B2g    7.842340    13B1u   16.761841

    Final Occupation by Irrep:
             Ag   B1g   B2g   B3g    Au   B1u   B2u   B3u
    DOCC [     3,    0,    0,    0,    0,    2,    1,    1 ]
    SOCC [     0,    0,    1,    1,    0,    0,    0,    0 ]
    NA   [     3,    0,    1,    1,    0,    2,    1,    1 ]
    NB   [     3,    0,    0,    0,    0,    2,    1,    1 ]

  @DF-UKS Final Energy:  -150.33394094624808

   => Energetics <=

    Nuclear Repulsion Energy =             32.0800344438739984
    One-Electron Energy =                -269.5504354685385238
    Two-Electron Energy =                 101.0454974312003316
    DFT Exchange-Correlation Energy =     -13.9090373527838818
    Empirical Dispersion Energy =           0.0000000000000000
    VV10 Nonlocal Energy =                  0.0000000000000000
    Total Energy =                       -150.3339409462480774

  UHF NO Occupations:
  HONO-2 :    1B3u 1.9989326
  HONO-1 :    1B2g 1.0000000
  HONO-0 :    1B3g 1.0000000
  LUNO+0 :    2B3u 0.0010674
  LUNO+1 :    2B2u 0.0010674
  LUNO+2 :    3B1u 0.0006955
  LUNO+3 :    4 Ag 0.0002628

Computation Completed

Properties will be evaluated at   0.000000,   0.000000,   0.000000 [a0]

Properties computed using the B3LYP density matrix

 Multipole Moments:

 ------------------------------------------------------------------------------------
     Multipole            Electronic (a.u.)      Nuclear  (a.u.)        Total (a.u.)
 ------------------------------------------------------------------------------------

 L = 1.  Multiply by 2.5417464519 to convert [e a0] to [Debye]
 Dipole X            :          0.0000000            0.0000000            0.0000000
 Dipole Y            :          0.0000000            0.0000000            0.0000000
 Dipole Z            :          0.0000000            0.0000000            0.0000000
 Magnitude           :                                                    0.0000000

 L = 2.  Multiply by 1.3450342976 to convert [e a0^2] to [Debye ang]
 Quadrupole XX       :         -7.1482384            0.0000000           -7.1482384
 Quadrupole XY       :          0.0000000            0.0000000            0.0000000
 Quadrupole XZ       :          0.0000000            0.0000000            0.0000000
 Quadrupole YY       :         -7.1482384            0.0000000           -7.1482384
 Quadrupole YZ       :          0.0000000            0.0000000            0.0000000
 Quadrupole ZZ       :        -23.8825055           15.9202648           -7.9622407
 Traceless XX        :          5.5780890           -5.3067549            0.2713341
 Traceless YY        :          5.5780890           -5.3067549            0.2713341
 Traceless ZZ        :        -11.1561780           10.6135099           -0.5426682

 ------------------------------------------------------------------------------------
  ==> Computing MBIS Charges <==

  Electron Count from Grid (Expected Number): 16.00000 (16.00000)
  Difference:  0.00000

  MBIS Charges: (a.u.)
   Center  Symbol  Z      Pop.       Charge
      1       O    8    8.000000   -0.000000
      2       O    8    8.000000   -0.000000

  MBIS Dipoles: [e a0]
   Center  Symbol  Z        X           Y           Z
      1       O    8    0.000000   -0.000000    0.157034
      2       O    8    0.000000   -0.000000   -0.157034

  MBIS Quadrupoles: [e a0^2]
   Center  Symbol  Z      XX        XY        XZ        YY        YZ        ZZ
      1       O    8   -3.5741   -0.0000    0.0000   -3.5741   -0.0000   -3.6678
      2       O    8   -3.5741   -0.0000   -0.0000   -3.5741    0.0000   -3.6678

  MBIS Octupoles: [e a0^3]
   Center  Symbol  Z      XXX       XXY       XXZ       XYY       XYZ       XZZ       YYY       YYZ       YZZ       ZZZ
      1       O    8   -0.0000   -0.0000    0.2062    0.0000   -0.0000    0.0000   -0.0000    0.2062    0.0000    0.0191
      2       O    8   -0.0000   -0.0000   -0.2062    0.0000    0.0000    0.0000   -0.0000   -0.2062   -0.0000   -0.0191

  MBIS Radial Moments:
   Center  Symbol  Z      [a0^2]      [a0^3]      [a0^4]
      1       O    8   10.816074   19.916669   44.087909
      2       O    8   10.816074   19.916669   44.087909

  MBIS Valence Widths: [a0]
   Center  Symbol  Z     Width
      1       O    8    0.376998
      2       O    8    0.376998

*** tstop() called on Mac.lan at Sun Aug 10 17:00:53 2025
Module time:
	user time   =       3.44 seconds =       0.06 minutes
	system time =       2.15 seconds =       0.04 minutes
	total time  =          0 seconds =       0.00 minutes
Total time:
	user time   =      15.28 seconds =       0.25 minutes
	system time =       4.58 seconds =       0.08 minutes
	total time  =          2 seconds =       0.03 minutes

    Psi4 stopped on: Sunday, 10 August 2025 05:00PM
    Psi4 wall time for execution: 0:00:01.94

*** Psi4 exiting successfully. Buy a developer a beer!
