                               Psi4 1.9.1 release

  ==> Input File <==

--------------------------------------------------------------------------
molecule {
0 1
O           0.000000           0.000000           0.000000
C           0.000000           0.000000           1.627143
}

set {
basis              cc-pvtz
reference          uks
maxiter            500
DAMPING_PERCENTAGE 1
E_CONVERGENCE      1.0E-8
D_CONVERGENCE      1.0E-8
DIIS_MAX_VECS      400
MBIS_MAXITER       8000
guess              read
}

E, wfn = energy('b3lyp', restart_file='last_wfn', return_wfn=True)
properties('b3lyp','MBIS_CHARGES', wfn=wfn)
wfn.to_file('last_wfn')
--------------------------------------------------------------------------

    Molecular point group: c2v
  Charge       = 0
  Multiplicity = 1
  Basis Set: CC-PVTZ
    Blend: CC-PVTZ
  Basis Set: (CC-PVTZ AUX)
    Blend: CC-PVTZ-JKFIT
  @DF-UKS Final Energy:  -113.14936417669149
    Total Energy =                       -113.1493641766914919
 Dipole X            :          0.0000000            0.0000000            0.0000000
 Dipole Y            :          0.0000000            0.0000000            0.0000000
 Dipole Z            :          0.6183941           -0.0033514            0.6150427
 Magnitude           :                                                    0.6150427
    Molecular point group: c2v

    Geometry (in Angstrom), charge = 0, multiplicity = 1:

       Center              X                  Y                   Z               Mass
    ------------   -----------------  -----------------  -----------------  -----------------
         O            0.000000000000     0.000000000000    -0.697473675678    15.994914619570
         C            0.000000000000     0.000000000000     0.929669324322    12.000000000000

  Charge       = 0
  Multiplicity = 1
  Basis Set: CC-PVTZ
    Blend: CC-PVTZ
  Basis Set: (CC-PVTZ AUX)
    Blend: CC-PVTZ-JKFIT

    Orbital Energies [Eh]
    ---------------------

    Alpha Occupied:

       1A1   -19.229734     2A1   -10.414128     3A1    -0.964028
       4A1    -0.597574     5A1    -0.386666     1B1    -0.362189
       1B2    -0.362189

    Alpha Virtual:

       2B2    -0.161159     2B1    -0.161159     6A1     0.013449
       7A1     0.270282     3B2     0.284983     3B1     0.284983
       8A1     0.320929     9A1     0.554687     4B2     0.600886
       4B1     0.600886    10A1     0.630452     1A2     0.630452
       5B1     0.737312     5B2     0.737312    11A1     0.951993
      12A1     1.213251     2A2     1.467072    13A1     1.467073
       6B1     1.613258     6B2     1.613258    14A1     1.773255
       7B1     1.929307     7B2     1.929307    15A1     2.278526
       8B2     2.605691     8B1     2.605691     3A2     2.632600
      16A1     2.632600     9B1     2.768553     9B2     2.768553
      17A1     2.790619    18A1     2.863336     4A2     2.863338
      10B1     3.047808    10B2     3.047808    19A1     3.142421
      11B1     3.651177    11B2     3.651177    20A1     3.670191
      21A1     4.632539    12B1     5.098699    12B2     5.098699
      22A1     5.132715     5A2     5.132717    13B2     5.340854
      13B1     5.340854    23A1     5.677823     6A2     6.167570
      24A1     6.167615    14B1     6.448521    14B2     6.448521
      25A1     6.976751    26A1     8.167085

    Beta Occupied:

       1A1   -19.229734     2A1   -10.414128     3A1    -0.964028
       4A1    -0.597574     5A1    -0.386666     1B1    -0.362189
       1B2    -0.362189

    Beta Virtual:

       2B2    -0.161159     2B1    -0.161159     6A1     0.013449
       7A1     0.270282     3B2     0.284983     3B1     0.284983
       8A1     0.320929     9A1     0.554687     4B2     0.600886
       4B1     0.600886    10A1     0.630452     1A2     0.630452
       5B1     0.737312     5B2     0.737312    11A1     0.951993
      12A1     1.213251     2A2     1.467072    13A1     1.467073
       6B1     1.613258     6B2     1.613258    14A1     1.773255
       7B1     1.929307     7B2     1.929307    15A1     2.278526
       8B2     2.605691     8B1     2.605691     3A2     2.632600
      16A1     2.632600     9B1     2.768553     9B2     2.768553
      17A1     2.790619    18A1     2.863336     4A2     2.863338
      10B1     3.047808    10B2     3.047808    19A1     3.142421
      11B1     3.651177    11B2     3.651177    20A1     3.670191
      21A1     4.632539    12B1     5.098699    12B2     5.098699
      22A1     5.132715     5A2     5.132717    13B2     5.340854
      13B1     5.340854    23A1     5.677823     6A2     6.167570
      24A1     6.167615    14B1     6.448521    14B2     6.448521
      25A1     6.976751    26A1     8.167085

    Final Occupation by Irrep:
             A1    A2    B1    B2
    DOCC [     5,    0,    1,    1 ]
    SOCC [     0,    0,    0,    0 ]
    NA   [     5,    0,    1,    1 ]
    NB   [     5,    0,    1,    1 ]

  @DF-UKS Final Energy:  -113.14936417670997

   => Energetics <=

    Nuclear Repulsion Energy =             15.6104940451822607
    One-Electron Energy =                -184.9733725345722348
    Two-Electron Energy =                  67.2017227437385287
    DFT Exchange-Correlation Energy =     -10.9882084310585189
    Empirical Dispersion Energy =           0.0000000000000000
    VV10 Nonlocal Energy =                  0.0000000000000000
    Total Energy =                       -113.1493641767099660

  UHF NO Occupations:
  HONO-2 :    1 B2 2.0000000
  HONO-1 :    4 A1 2.0000000
  HONO-0 :    5 A1 2.0000000
  LUNO+0 :    6 A1 0.0000000
  LUNO+1 :    7 A1 0.0000000
  LUNO+2 :    8 A1 0.0000000
  LUNO+3 :    9 A1 0.0000000

Computation Completed

Properties will be evaluated at   0.000000,   0.000000,   0.000000 [a0]

Properties computed using the B3LYP density matrix

 Multipole Moments:

 ------------------------------------------------------------------------------------
     Multipole            Electronic (a.u.)      Nuclear  (a.u.)        Total (a.u.)
 ------------------------------------------------------------------------------------

 L = 1.  Multiply by 2.5417464519 to convert [e a0] to [Debye]
 Dipole X            :          0.0000000            0.0000000            0.0000000
 Dipole Y            :          0.0000000            0.0000000            0.0000000
 Dipole Z            :          0.6183941           -0.0033514            0.6150427
 Magnitude           :                                                    0.6150427

 L = 2.  Multiply by 1.3450342976 to convert [e a0^2] to [Debye ang]
 Quadrupole XX       :         -8.1832003            0.0000000           -8.1832003
 Quadrupole XY       :          0.0000000            0.0000000            0.0000000
 Quadrupole XZ       :          0.0000000            0.0000000            0.0000000
 Quadrupole YY       :         -8.1832003            0.0000000           -8.1832003
 Quadrupole YZ       :          0.0000000            0.0000000            0.0000000
 Quadrupole ZZ       :        -40.9022103           32.4162215           -8.4859888
 Traceless XX        :         10.9063367          -10.8054072            0.1009295
 Traceless YY        :         10.9063367          -10.8054072            0.1009295
 Traceless ZZ        :        -21.8126733           21.6108143           -0.2018590

 ------------------------------------------------------------------------------------
  ==> Computing MBIS Charges <==

  Electron Count from Grid (Expected Number): 14.00000 (14.00000)
  Difference: -0.00000

  MBIS Charges: (a.u.)
   Center  Symbol  Z      Pop.       Charge
      1       O    8    8.302874   -0.302874
      2       C    6    5.697125    0.302875

  MBIS Dipoles: [e a0]
   Center  Symbol  Z        X           Y           Z
      1       O    8   -0.000000   -0.000000   -0.157460
      2       C    6    0.000000    0.000000   -0.158793

  MBIS Quadrupoles: [e a0^2]
   Center  Symbol  Z      XX        XY        XZ        YY        YZ        ZZ
      1       O    8   -4.2099   -0.0000   -0.0000   -4.2099    0.0000   -4.1979
      2       C    6   -3.9733    0.0000    0.0000   -3.9733    0.0000   -4.5539

  MBIS Octupoles: [e a0^3]
   Center  Symbol  Z      XXX       XXY       XXZ       XYY       XYZ       XZZ       YYY       YYZ       YZZ       ZZZ
      1       O    8   -0.0000   -0.0000   -0.1788   -0.0000    0.0000    0.0000    0.0000   -0.1788    0.0000   -0.5590
      2       C    6   -0.0000   -0.0000    0.0755    0.0000    0.0000    0.0000    0.0000    0.0755    0.0000   -0.0135

  MBIS Radial Moments:
   Center  Symbol  Z      [a0^2]      [a0^3]      [a0^4]
      1       O    8   12.617754   24.504554   56.825819
      2       C    6   12.500406   30.259264   86.986008

  MBIS Valence Widths: [a0]
   Center  Symbol  Z     Width
      1       O    8    0.399208
      2       C    6    0.514598

*** tstop() called on Mac.lan at Sun Aug 10 17:18:57 2025
Module time:
	user time   =       3.15 seconds =       0.05 minutes
	system time =       2.19 seconds =       0.04 minutes
	total time  =          1 seconds =       0.02 minutes
Total time:
	user time   =      18.26 seconds =       0.30 minutes
	system time =       4.62 seconds =       0.08 minutes
	total time  =          3 seconds =       0.05 minutes

    Psi4 stopped on: Sunday, 10 August 2025 05:18PM
    Psi4 wall time for execution: 0:00:02.22

*** Psi4 exiting successfully. Buy a developer a beer!
