                               Psi4 1.9.1 release

  ==> Input File <==

--------------------------------------------------------------------------
molecule {
0 2
O           0.000000           0.000000           0.000000
H           0.000000           0.000000           0.692169
}

set {
basis              cc-pvtz
reference          uks
maxiter            500
DAMPING_PERCENTAGE 1
E_CONVERGENCE      1.0E-8
D_CONVERGENCE      1.0E-8
DIIS_MAX_VECS      400
MBIS_MAXITER       8000
guess              read
}

E, wfn = energy('b3lyp', restart_file='last_wfn', return_wfn=True)
properties('b3lyp','MBIS_CHARGES', wfn=wfn)
wfn.to_file('last_wfn')
--------------------------------------------------------------------------

    Molecular point group: c2v
  Charge       = 0
  Multiplicity = 2
  Basis Set: CC-PVTZ
    Blend: CC-PVTZ
  Basis Set: (CC-PVTZ AUX)
    Blend: CC-PVTZ-JKFIT
  @DF-UKS Final Energy:   -75.61800479793925
    Total Energy =                        -75.6180047979392498
 Dipole X            :          0.0000000            0.0000000            0.0000000
 Dipole Y            :          0.0000000            0.0000000            0.0000000
 Dipole Z            :         -0.0071550            0.6102278            0.6030728
 Magnitude           :                                                    0.6030728
    Molecular point group: c2v

    Geometry (in Angstrom), charge = 0, multiplicity = 2:

       Center              X                  Y                   Z               Mass
    ------------   -----------------  -----------------  -----------------  -----------------
         O            0.000000000000     0.000000000000    -0.041027814283    15.994914619570
         H            0.000000000000     0.000000000000     0.651141185717     1.007825032230

  Charge       = 0
  Multiplicity = 2
  Basis Set: CC-PVTZ
    Blend: CC-PVTZ
  Basis Set: (CC-PVTZ AUX)
    Blend: CC-PVTZ-JKFIT

    Orbital Energies [Eh]
    ---------------------

    Alpha Occupied:

       1A1   -19.173689     2A1    -1.132109     3A1    -0.519570
       1B1    -0.434643     1B2    -0.361440

    Alpha Virtual:

       4A1     0.061597     5A1     0.476355     2B1     0.517628
       2B2     0.550819     6A1     0.572824     3B1     0.741217
       3B2     0.762642     7A1     0.805612     8A1     1.409657
       1A2     1.410499     9A1     1.631891     4B1     1.812159
       4B2     1.849353    10A1     1.929467    11A1     2.696760
       2A2     3.325871    12A1     3.325984     5B1     3.352980
       5B2     3.381862     6B1     3.613335     6B2     3.668224
      13A1     3.923534     7B1     4.359301     7B2     4.390640
      14A1     4.571097     8B1     5.053264     8B2     5.053534
      15A1     5.683716     3A2     5.781476    16A1     5.785234
       4A2     6.104527    17A1     6.106464     9B1     6.156511
       9B2     6.209149    18A1     7.418183    19A1     7.632705
      10B1     7.922537    10B2     7.970657    20A1    13.659337

    Beta Occupied:

       1A1   -19.148791     2A1    -1.067922     3A1    -0.487514
       1B2    -0.335888

    Beta Virtual:

       1B1    -0.186554     4A1     0.066247     5A1     0.482925
       2B2     0.560037     6A1     0.582163     2B1     0.582495
       3B2     0.764711     3B1     0.769478     7A1     0.828032
       1A2     1.463267     8A1     1.468894     9A1     1.650792
       4B2     1.854905     4B1     1.858982    10A1     1.952066
      11A1     2.705718     2A2     3.342482    12A1     3.343646
       5B2     3.384971     5B1     3.392338     6B2     3.685218
       6B1     3.709707    13A1     3.936453     7B2     4.393658
       7B1     4.395433    14A1     4.602456     8B2     5.123666
       8B1     5.126585    15A1     5.725918     3A2     5.824023
      16A1     5.828495     4A2     6.197040    17A1     6.211849
       9B2     6.218256     9B1     6.226658    18A1     7.440554
      19A1     7.648781    10B2     7.979694    10B1     7.989934
      20A1    13.687605

    Final Occupation by Irrep:
             A1    A2    B1    B2
    DOCC [     3,    0,    0,    1 ]
    SOCC [     0,    0,    1,    0 ]
    NA   [     3,    0,    1,    1 ]
    NB   [     3,    0,    0,    1 ]

  @DF-UKS Final Energy:   -75.61800479790551

   => Energetics <=

    Nuclear Repulsion Energy =              6.1161619277373012
    One-Electron Energy =                -115.5392550705786050
    Two-Electron Energy =                  41.1387694171637719
    DFT Exchange-Correlation Energy =      -7.3336810722279813
    Empirical Dispersion Energy =           0.0000000000000000
    VV10 Nonlocal Energy =                  0.0000000000000000
    Total Energy =                        -75.6180047979055132

  UHF NO Occupations:
  HONO-2 :    1 B2 1.9998582
  HONO-1 :    3 A1 1.9993783
  HONO-0 :    1 B1 1.0000000
  LUNO+0 :    4 A1 0.0006217
  LUNO+1 :    2 B2 0.0001418
  LUNO+2 :    5 A1 0.0000960
  LUNO+3 :    6 A1 0.0000006

Computation Completed

Properties will be evaluated at   0.000000,   0.000000,   0.000000 [a0]

Properties computed using the B3LYP density matrix

 Multipole Moments:

 ------------------------------------------------------------------------------------
     Multipole            Electronic (a.u.)      Nuclear  (a.u.)        Total (a.u.)
 ------------------------------------------------------------------------------------

 L = 1.  Multiply by 2.5417464519 to convert [e a0] to [Debye]
 Dipole X            :          0.0000000            0.0000000            0.0000000
 Dipole Y            :          0.0000000            0.0000000            0.0000000
 Dipole Z            :         -0.0071550            0.6102278            0.6030728
 Magnitude           :                                                    0.6030728

 L = 2.  Multiply by 1.3450342976 to convert [e a0^2] to [Debye ang]
 Quadrupole XX       :         -3.7894557            0.0000000           -3.7894557
 Quadrupole XY       :          0.0000000            0.0000000            0.0000000
 Quadrupole XZ       :          0.0000000            0.0000000            0.0000000
 Quadrupole YY       :         -4.6640808            0.0000000           -4.6640808
 Quadrupole YZ       :          0.0000000            0.0000000            0.0000000
 Quadrupole ZZ       :         -5.1514199            1.5621662           -3.5892537
 Traceless XX        :          0.7455298           -0.5207221            0.2248077
 Traceless YY        :         -0.1290953           -0.5207221           -0.6498174
 Traceless ZZ        :         -0.6164344            1.0414441            0.4250097

 ------------------------------------------------------------------------------------
  ==> Computing MBIS Charges <==

  Electron Count from Grid (Expected Number):  9.00000 ( 9.00000)
  Difference:  0.00000

  MBIS Charges: (a.u.)
   Center  Symbol  Z      Pop.       Charge
      1       O    8    8.436589   -0.436589
      2       H    1    0.563411    0.436589

  MBIS Dipoles: [e a0]
   Center  Symbol  Z        X           Y           Z
      1       O    8    0.000000   -0.000000    0.012421
      2       H    1    0.000000   -0.000000    0.019589

  MBIS Quadrupoles: [e a0^2]
   Center  Symbol  Z      XX        XY        XZ        YY        YZ        ZZ
      1       O    8   -3.6384    0.0000    0.0000   -4.4930   -0.0000   -4.1341
      2       H    1   -0.1510    0.0000    0.0000   -0.1711    0.0000   -0.1599

  MBIS Octupoles: [e a0^3]
   Center  Symbol  Z      XXX       XXY       XXZ       XYY       XYZ       XZZ       YYY       YYZ       YZZ       ZZZ
      1       O    8   -0.0000   -0.0000    0.0933   -0.0000    0.0000    0.0000   -0.0000    0.0421   -0.0000   -0.0065
      2       H    1    0.0000    0.0000    0.0008    0.0000    0.0000    0.0000   -0.0000    0.0040    0.0000    0.0043

  MBIS Radial Moments:
   Center  Symbol  Z      [a0^2]      [a0^3]      [a0^4]
      1       O    8   12.265510   23.285956   52.796866
      2       H    1    0.481967    0.640512    1.023545

  MBIS Valence Widths: [a0]
   Center  Symbol  Z     Width
      1       O    8    0.388549
      2       H    1    0.268310

*** tstop() called on Mac.lan at Sun Aug 10 17:10:55 2025
Module time:
	user time   =       3.35 seconds =       0.06 minutes
	system time =       2.85 seconds =       0.05 minutes
	total time  =          1 seconds =       0.02 minutes
Total time:
	user time   =      13.95 seconds =       0.23 minutes
	system time =       5.22 seconds =       0.09 minutes
	total time  =          2 seconds =       0.03 minutes

    Psi4 stopped on: Sunday, 10 August 2025 05:10PM
    Psi4 wall time for execution: 0:00:01.91

*** Psi4 exiting successfully. Buy a developer a beer!
