                               Psi4 1.9.1 release

  ==> Input File <==

--------------------------------------------------------------------------
molecule {
0 2
O           0.000000           0.000000           0.000000
H           0.000000           0.000000           0.835376
}

set {
basis              cc-pvtz
reference          uks
maxiter            500
DAMPING_PERCENTAGE 1
E_CONVERGENCE      1.0E-8
D_CONVERGENCE      1.0E-8
DIIS_MAX_VECS      400
MBIS_MAXITER       8000
guess              read
}

E, wfn = energy('b3lyp', restart_file='last_wfn', return_wfn=True)
properties('b3lyp','MBIS_CHARGES', wfn=wfn)
wfn.to_file('last_wfn')
--------------------------------------------------------------------------

    Molecular point group: c2v
  Charge       = 0
  Multiplicity = 2
  Basis Set: CC-PVTZ
    Blend: CC-PVTZ
  Basis Set: (CC-PVTZ AUX)
    Blend: CC-PVTZ-JKFIT
  @DF-UKS Final Energy:   -75.74027863116378
    Total Energy =                        -75.7402786311637755
 Dipole X            :          0.0000000            0.0000000            0.0000000
 Dipole Y            :          0.0000000            0.0000000            0.0000000
 Dipole Z            :         -0.0996680            0.7364816            0.6368135
 Magnitude           :                                                    0.6368135
    Molecular point group: c2v

    Geometry (in Angstrom), charge = 0, multiplicity = 2:

       Center              X                  Y                   Z               Mass
    ------------   -----------------  -----------------  -----------------  -----------------
         O            0.000000000000     0.000000000000    -0.049516305099    15.994914619570
         H            0.000000000000     0.000000000000     0.785859694901     1.007825032230

  Charge       = 0
  Multiplicity = 2
  Basis Set: CC-PVTZ
    Blend: CC-PVTZ
  Basis Set: (CC-PVTZ AUX)
    Blend: CC-PVTZ-JKFIT

    Orbital Energies [Eh]
    ---------------------

    Alpha Occupied:

       1A1   -19.185929     2A1    -1.064328     3A1    -0.498147
       1B1    -0.424354     1B2    -0.351535

    Alpha Virtual:

       4A1     0.049739     5A1     0.449417     6A1     0.505940
       2B1     0.528561     2B2     0.563991     3B1     0.708884
       3B2     0.726792     7A1     0.830506     8A1     1.409972
       1A2     1.414466     9A1     1.434672     4B1     1.783162
       4B2     1.821487    10A1     1.832582    11A1     2.538896
       2A2     3.240087    12A1     3.240251     5B1     3.373414
       5B2     3.407237     6B1     3.583603     6B2     3.624849
      13A1     3.816750     7B1     4.174719     7B2     4.206045
      14A1     4.485295    15A1     4.990907     8B1     5.061891
       8B2     5.062158     3A2     5.524122    16A1     5.524901
       4A2     6.129947    17A1     6.130234     9B1     6.297740
       9B2     6.354363    18A1     6.771784    10B1     7.083824
      10B2     7.128583    19A1     7.243436    20A1    11.535657

    Beta Occupied:

       1A1   -19.160908     2A1    -0.997255     3A1    -0.469591
       1B2    -0.326085

    Beta Virtual:

       1B1    -0.177364     4A1     0.055057     5A1     0.457486
       6A1     0.513472     2B2     0.574413     2B1     0.600403
       3B2     0.726942     3B1     0.728169     7A1     0.855550
       8A1     1.445194     1A2     1.466852     9A1     1.473708
       4B2     1.827403     4B1     1.832147    10A1     1.849628
      11A1     2.547942     2A2     3.251142    12A1     3.252054
       5B2     3.411493     5B1     3.421080     6B2     3.636313
       6B1     3.656572    13A1     3.822982     7B2     4.209905
       7B1     4.211550    14A1     4.516477    15A1     5.021411
       8B2     5.132104     8B1     5.135069     3A2     5.568754
      16A1     5.573702     4A2     6.221184    17A1     6.235497
       9B2     6.365940     9B1     6.381819    18A1     6.795246
      10B2     7.136007    10B1     7.142515    19A1     7.265665
      20A1    11.567394

    Final Occupation by Irrep:
             A1    A2    B1    B2
    DOCC [     3,    0,    0,    1 ]
    SOCC [     0,    0,    1,    0 ]
    NA   [     3,    0,    1,    1 ]
    NB   [     3,    0,    0,    1 ]

  @DF-UKS Final Energy:   -75.74027863143338

   => Energetics <=

    Nuclear Repulsion Energy =              5.0676793268659859
    One-Electron Energy =                -113.9278948975305070
    Two-Electron Energy =                  40.3709413777731854
    DFT Exchange-Correlation Energy =      -7.2510044385420427
    Empirical Dispersion Energy =           0.0000000000000000
    VV10 Nonlocal Energy =                  0.0000000000000000
    Total Energy =                        -75.7402786314333838

  UHF NO Occupations:
  HONO-2 :    1 B2 1.9998523
  HONO-1 :    3 A1 1.9993517
  HONO-0 :    1 B1 1.0000000
  LUNO+0 :    4 A1 0.0006483
  LUNO+1 :    2 B2 0.0001477
  LUNO+2 :    5 A1 0.0001468
  LUNO+3 :    6 A1 0.0000006

Computation Completed

Properties will be evaluated at   0.000000,   0.000000,   0.000000 [a0]

Properties computed using the B3LYP density matrix

 Multipole Moments:

 ------------------------------------------------------------------------------------
     Multipole            Electronic (a.u.)      Nuclear  (a.u.)        Total (a.u.)
 ------------------------------------------------------------------------------------

 L = 1.  Multiply by 2.5417464519 to convert [e a0] to [Debye]
 Dipole X            :          0.0000000            0.0000000            0.0000000
 Dipole Y            :          0.0000000            0.0000000            0.0000000
 Dipole Z            :         -0.0996680            0.7364816            0.6368135
 Magnitude           :                                                    0.6368135

 L = 2.  Multiply by 1.3450342976 to convert [e a0^2] to [Debye ang]
 Quadrupole XX       :         -3.9039962            0.0000000           -3.9039962
 Quadrupole XY       :          0.0000000            0.0000000            0.0000000
 Quadrupole XZ       :          0.0000000            0.0000000            0.0000000
 Quadrupole YY       :         -4.7911018            0.0000000           -4.7911018
 Quadrupole YZ       :          0.0000000            0.0000000            0.0000000
 Quadrupole ZZ       :         -5.7237931            2.2754481           -3.4483449
 Traceless XX        :          0.9023008           -0.7584827            0.1438181
 Traceless YY        :          0.0151952           -0.7584827           -0.7432875
 Traceless ZZ        :         -0.9174960            1.5169654            0.5994694

 ------------------------------------------------------------------------------------
  ==> Computing MBIS Charges <==

  Electron Count from Grid (Expected Number):  9.00000 ( 9.00000)
  Difference: -0.00000

  MBIS Charges: (a.u.)
   Center  Symbol  Z      Pop.       Charge
      1       O    8    8.409450   -0.409450
      2       H    1    0.590550    0.409450

  MBIS Dipoles: [e a0]
   Center  Symbol  Z        X           Y           Z
      1       O    8   -0.000000    0.000000   -0.033305
      2       H    1   -0.000000    0.000000    0.023748

  MBIS Quadrupoles: [e a0^2]
   Center  Symbol  Z      XX        XY        XZ        YY        YZ        ZZ
      1       O    8   -3.6819    0.0000   -0.0000   -4.5390    0.0000   -4.1891
      2       H    1   -0.2221    0.0000   -0.0000   -0.2521   -0.0000   -0.2354

  MBIS Octupoles: [e a0^3]
   Center  Symbol  Z      XXX       XXY       XXZ       XYY       XYZ       XZZ       YYY       YYZ       YZZ       ZZZ
      1       O    8   -0.0000   -0.0000    0.0107   -0.0000   -0.0000   -0.0000    0.0000   -0.0244    0.0000   -0.2134
      2       H    1   -0.0000   -0.0000   -0.0026   -0.0000    0.0000   -0.0000    0.0000    0.0049   -0.0000    0.0058

  MBIS Radial Moments:
   Center  Symbol  Z      [a0^2]      [a0^3]      [a0^4]
      1       O    8   12.410008   23.726792   54.211757
      2       H    1    0.709618    1.120583    2.118783

  MBIS Valence Widths: [a0]
   Center  Symbol  Z     Width
      1       O    8    0.392072
      2       H    1    0.317145

*** tstop() called on Mac.lan at Sun Aug 10 17:10:38 2025
Module time:
	user time   =       2.87 seconds =       0.05 minutes
	system time =       2.74 seconds =       0.05 minutes
	total time  =          1 seconds =       0.02 minutes
Total time:
	user time   =      12.15 seconds =       0.20 minutes
	system time =       4.77 seconds =       0.08 minutes
	total time  =          2 seconds =       0.03 minutes

    Psi4 stopped on: Sunday, 10 August 2025 05:10PM
    Psi4 wall time for execution: 0:00:01.65

*** Psi4 exiting successfully. Buy a developer a beer!
