                               Psi4 1.9.1 release

  ==> Input File <==

--------------------------------------------------------------------------
molecule {
0 1
N           0.000000           0.000000           0.000000
N           0.000000           0.000000           1.396453
}

set {
basis              cc-pvtz
reference          uks
maxiter            500
DAMPING_PERCENTAGE 1
E_CONVERGENCE      1.0E-8
D_CONVERGENCE      1.0E-8
DIIS_MAX_VECS      400
MBIS_MAXITER       8000
guess              read
}

E, wfn = energy('b3lyp', restart_file='last_wfn', return_wfn=True)
properties('b3lyp','MBIS_CHARGES', wfn=wfn)
wfn.to_file('last_wfn')
--------------------------------------------------------------------------

    Molecular point group: d2h
  Charge       = 0
  Multiplicity = 1
  Basis Set: CC-PVTZ
    Blend: CC-PVTZ
  Basis Set: (CC-PVTZ AUX)
    Blend: CC-PVTZ-JKFIT
  @DF-UKS Final Energy:  -109.43243358250977
    Total Energy =                       -109.4324335825097734
 Dipole X            :          0.0000000            0.0000000            0.0000000
 Dipole Y            :          0.0000000            0.0000000            0.0000000
 Dipole Z            :          0.0000000            0.0000000            0.0000000
 Magnitude           :                                                    0.0000000
    Molecular point group: d2h

    Geometry (in Angstrom), charge = 0, multiplicity = 1:

       Center              X                  Y                   Z               Mass
    ------------   -----------------  -----------------  -----------------  -----------------
         N            0.000000000000     0.000000000000    -0.698226500000    14.003074004430
         N            0.000000000000     0.000000000000     0.698226500000    14.003074004430

  Charge       = 0
  Multiplicity = 1
  Basis Set: CC-PVTZ
    Blend: CC-PVTZ
  Basis Set: (CC-PVTZ AUX)
    Blend: CC-PVTZ-JKFIT

    Orbital Energies [Eh]
    ---------------------

    Alpha Occupied:

       1Ag   -14.482684     1B1u  -14.482406     2Ag    -0.971495
       2B1u   -0.629496     3Ag    -0.417618     1B2u   -0.395368
       1B3u   -0.395368

    Alpha Virtual:

       1B3g   -0.134359     1B2g   -0.134359     3B1u    0.157656
       2B2u    0.415163     2B3u    0.415163     4B1u    0.415382
       4Ag     0.439054     5Ag     0.486640     2B2g    0.507329
       2B3g    0.507329     5B1u    0.866702     1B1g    0.868279
       6Ag     0.868279     3B2u    0.940901     3B3u    0.940901
       1Au     1.168692     6B1u    1.168692     7Ag     1.562300
       3B2g    1.586450     3B3g    1.586450     7B1u    1.633378
       4B2u    2.690482     4B3u    2.690482     8Ag     2.807323
       4B3g    2.894132     4B2g    2.894132     9Ag     3.488459
       2B1g    3.488459     5B2u    3.500393     5B3u    3.500393
       8B1u    3.580986    10Ag     3.618734     6B2u    3.737260
       6B3u    3.737260     5B3g    3.910150     5B2g    3.910150
       9B1u    4.261574     2Au     4.261576    11Ag     4.324739
       3B1g    4.324749    10B1u    4.344471    11B1u    4.530174
       3Au     4.530182     6B2g    4.543590     6B3g    4.543590
       7B2u    4.614982     7B3u    4.614982    12B1u    4.913700
      12Ag     5.143891     7B2g    5.404032     7B3g    5.404032
      13Ag     5.578703    13B1u    8.881349

    Beta Occupied:

       1Ag   -14.482684     1B1u  -14.482406     2Ag    -0.971495
       2B1u   -0.629496     3Ag    -0.417618     1B3u   -0.395368
       1B2u   -0.395368

    Beta Virtual:

       1B3g   -0.134359     1B2g   -0.134359     3B1u    0.157656
       2B2u    0.415163     2B3u    0.415163     4B1u    0.415382
       4Ag     0.439054     5Ag     0.486640     2B2g    0.507329
       2B3g    0.507329     5B1u    0.866702     1B1g    0.868279
       6Ag     0.868279     3B2u    0.940901     3B3u    0.940901
       1Au     1.168692     6B1u    1.168692     7Ag     1.562300
       3B2g    1.586450     3B3g    1.586450     7B1u    1.633378
       4B2u    2.690482     4B3u    2.690482     8Ag     2.807323
       4B3g    2.894132     4B2g    2.894132     9Ag     3.488459
       2B1g    3.488459     5B2u    3.500393     5B3u    3.500393
       8B1u    3.580986    10Ag     3.618734     6B2u    3.737260
       6B3u    3.737260     5B3g    3.910150     5B2g    3.910150
       9B1u    4.261574     2Au     4.261576    11Ag     4.324739
       3B1g    4.324749    10B1u    4.344471    11B1u    4.530174
       3Au     4.530182     6B2g    4.543590     6B3g    4.543590
       7B2u    4.614982     7B3u    4.614982    12B1u    4.913700
      12Ag     5.143891     7B2g    5.404032     7B3g    5.404032
      13Ag     5.578703    13B1u    8.881349

    Final Occupation by Irrep:
             Ag   B1g   B2g   B3g    Au   B1u   B2u   B3u
    DOCC [     3,    0,    0,    0,    0,    2,    1,    1 ]
    SOCC [     0,    0,    0,    0,    0,    0,    0,    0 ]
    NA   [     3,    0,    0,    0,    0,    2,    1,    1 ]
    NB   [     3,    0,    0,    0,    0,    2,    1,    1 ]

  @DF-UKS Final Energy:  -109.43243358264759

   => Energetics <=

    Nuclear Repulsion Energy =             18.5682463518858150
    One-Electron Energy =                -184.6288004121443862
    Two-Electron Energy =                  67.4913193790716122
    DFT Exchange-Correlation Energy =     -10.8631989014606347
    Empirical Dispersion Energy =           0.0000000000000000
    VV10 Nonlocal Energy =                  0.0000000000000000
    Total Energy =                       -109.4324335826475902

  UHF NO Occupations:
  HONO-2 :    2B1u 2.0000000
  HONO-1 :    3 Ag 2.0000000
  HONO-0 :    1B3u 2.0000000
  LUNO+0 :    3B1u 0.0000000
  LUNO+1 :    4B1u 0.0000000
  LUNO+2 :    4 Ag 0.0000000
  LUNO+3 :    5B1u 0.0000000

Computation Completed

Properties will be evaluated at   0.000000,   0.000000,   0.000000 [a0]

Properties computed using the B3LYP density matrix

 Multipole Moments:

 ------------------------------------------------------------------------------------
     Multipole            Electronic (a.u.)      Nuclear  (a.u.)        Total (a.u.)
 ------------------------------------------------------------------------------------

 L = 1.  Multiply by 2.5417464519 to convert [e a0] to [Debye]
 Dipole X            :          0.0000000            0.0000000            0.0000000
 Dipole Y            :          0.0000000            0.0000000            0.0000000
 Dipole Z            :          0.0000000            0.0000000            0.0000000
 Magnitude           :                                                    0.0000000

 L = 2.  Multiply by 1.3450342976 to convert [e a0^2] to [Debye ang]
 Quadrupole XX       :         -8.1004001            0.0000000           -8.1004001
 Quadrupole XY       :          0.0000000            0.0000000            0.0000000
 Quadrupole XZ       :          0.0000000            0.0000000            0.0000000
 Quadrupole YY       :         -8.1004001            0.0000000           -8.1004001
 Quadrupole YZ       :          0.0000000            0.0000000            0.0000000
 Quadrupole ZZ       :        -32.9819463           24.3735296           -8.6084167
 Traceless XX        :          8.2938487           -8.1245099            0.1693388
 Traceless YY        :          8.2938487           -8.1245099            0.1693388
 Traceless ZZ        :        -16.5876974           16.2490197           -0.3386777

 ------------------------------------------------------------------------------------
  ==> Computing MBIS Charges <==

  Electron Count from Grid (Expected Number): 14.00000 (14.00000)
  Difference:  0.00000

  MBIS Charges: (a.u.)
   Center  Symbol  Z      Pop.       Charge
      1       N    7    7.000000   -0.000000
      2       N    7    7.000000   -0.000000

  MBIS Dipoles: [e a0]
   Center  Symbol  Z        X           Y           Z
      1       N    7   -0.000000   -0.000000   -0.014331
      2       N    7   -0.000000    0.000000    0.014331

  MBIS Quadrupoles: [e a0^2]
   Center  Symbol  Z      XX        XY        XZ        YY        YZ        ZZ
      1       N    7   -4.0502    0.0000   -0.0000   -4.0502   -0.0000   -4.3420
      2       N    7   -4.0502    0.0000    0.0000   -4.0502    0.0000   -4.3420

  MBIS Octupoles: [e a0^3]
   Center  Symbol  Z      XXX       XXY       XXZ       XYY       XYZ       XZZ       YYY       YYZ       YZZ       ZZZ
      1       N    7   -0.0000   -0.0000   -0.1386    0.0000   -0.0000    0.0000   -0.0000   -0.1386    0.0000   -0.2809
      2       N    7   -0.0000    0.0000    0.1386    0.0000    0.0000    0.0000   -0.0000    0.1386   -0.0000    0.2809

  MBIS Radial Moments:
   Center  Symbol  Z      [a0^2]      [a0^3]      [a0^4]
      1       N    7   12.442426   26.363455   66.500473
      2       N    7   12.442426   26.363455   66.500473

  MBIS Valence Widths: [a0]
   Center  Symbol  Z     Width
      1       N    7    0.443876
      2       N    7    0.443876

*** tstop() called on Mac.lan at Sun Aug 10 17:07:21 2025
Module time:
	user time   =       7.42 seconds =       0.12 minutes
	system time =       1.87 seconds =       0.03 minutes
	total time  =          1 seconds =       0.02 minutes
Total time:
	user time   =      34.05 seconds =       0.57 minutes
	system time =       3.61 seconds =       0.06 minutes
	total time  =          4 seconds =       0.07 minutes

    Psi4 stopped on: Sunday, 10 August 2025 05:07PM
    Psi4 wall time for execution: 0:00:03.83

*** Psi4 exiting successfully. Buy a developer a beer!
