                               Psi4 1.9.1 release

  ==> Input File <==

--------------------------------------------------------------------------
molecule {
0 2
C           0.000000           0.000000           0.000000
H           0.000000           0.000000           0.921893
}

set {
basis              cc-pvtz
reference          uks
maxiter            500
DAMPING_PERCENTAGE 1
E_CONVERGENCE      1.0E-8
D_CONVERGENCE      1.0E-8
DIIS_MAX_VECS      400
MBIS_MAXITER       8000
guess              read
}

E, wfn = energy('b3lyp', restart_file='last_wfn', return_wfn=True)
properties('b3lyp','MBIS_CHARGES', wfn=wfn)
wfn.to_file('last_wfn')
--------------------------------------------------------------------------

    Molecular point group: c2v
  Charge       = 0
  Multiplicity = 2
  Basis Set: CC-PVTZ
    Blend: CC-PVTZ
  Basis Set: (CC-PVTZ AUX)
    Blend: CC-PVTZ-JKFIT
  @DF-UKS Final Energy:   -38.46521508421517
    Total Energy =                        -38.4652150842151812
 Dipole X            :          0.0000000            0.0000000            0.0000000
 Dipole Y            :          0.0000000            0.0000000            0.0000000
 Dipole Z            :         -0.0889580            0.7972861            0.7083282
 Magnitude           :                                                    0.7083282
    Molecular point group: c2v

    Geometry (in Angstrom), charge = 0, multiplicity = 2:

       Center              X                  Y                   Z               Mass
    ------------   -----------------  -----------------  -----------------  -----------------
         C            0.000000000000     0.000000000000    -0.071426763516    12.000000000000
         H            0.000000000000     0.000000000000     0.850466236484     1.007825032230

  Charge       = 0
  Multiplicity = 2
  Basis Set: CC-PVTZ
    Blend: CC-PVTZ
  Basis Set: (CC-PVTZ AUX)
    Blend: CC-PVTZ-JKFIT

    Orbital Energies [Eh]
    ---------------------

    Alpha Occupied:

       1A1   -10.257474     2A1    -0.703995     3A1    -0.324224
       1B1    -0.259034

    Alpha Virtual:

       1B2    -0.147707     4A1     0.072416     5A1     0.286587
       2B1     0.292479     2B2     0.311761     6A1     0.359032
       7A1     0.524388     3B1     0.597160     3B2     0.601571
       1A2     0.654682     8A1     0.660527     9A1     0.987352
       4B1     1.068387     4B2     1.068542    10A1     1.679639
      11A1     1.921031     5B1     1.940277     5B2     1.965456
      12A1     2.161921     2A2     2.538334    13A1     2.542038
       6B1     2.643140     6B2     2.645351     7B1     2.673365
       7B2     2.681559     3A2     2.900029    14A1     2.910363
      15A1     3.001457     8B1     3.034876     8B2     3.038179
      16A1     3.577464     4A2     3.774582    17A1     3.777119
       9B2     3.910066     9B1     3.912137    18A1     5.119536
      10B1     5.193306    10B2     5.196036    19A1     5.354770
      20A1    10.630511

    Beta Occupied:

       1A1   -10.243031     2A1    -0.664552     3A1    -0.300509

    Beta Virtual:

       1B2    -0.131631     1B1    -0.086019     4A1     0.075583
       5A1     0.293425     2B2     0.319053     2B1     0.346967
       6A1     0.373604     7A1     0.537575     3B2     0.604021
       3B1     0.630133     1A2     0.698209     8A1     0.698223
       9A1     0.998950     4B2     1.069860     4B1     1.088867
      10A1     1.696702    11A1     1.932895     5B2     1.977425
       5B1     2.021251    12A1     2.184149     2A2     2.570403
      13A1     2.570872     6B2     2.684070     6B1     2.700449
       7B2     2.701793     7B1     2.721680    14A1     2.965610
       3A2     2.973710    15A1     3.028660     8B2     3.041705
       8B1     3.076097    16A1     3.589298     4A2     3.792468
      17A1     3.793357     9B2     3.908501     9B1     3.923858
      18A1     5.129052    10B2     5.198016    10B1     5.225887
      19A1     5.362452    20A1    10.645380

    Final Occupation by Irrep:
             A1    A2    B1    B2
    DOCC [     3,    0,    0,    0 ]
    SOCC [     0,    0,    1,    0 ]
    NA   [     3,    0,    1,    0 ]
    NB   [     3,    0,    0,    0 ]

  @DF-UKS Final Energy:   -38.46521508765770

   => Energetics <=

    Nuclear Repulsion Energy =              3.4440691750778023
    One-Electron Energy =                 -57.7347631904655429
    Two-Electron Energy =                  20.4400106418936183
    DFT Exchange-Correlation Energy =      -4.6145317141635855
    Empirical Dispersion Energy =           0.0000000000000000
    VV10 Nonlocal Energy =                  0.0000000000000000
    Total Energy =                        -38.4652150876577039

  UHF NO Occupations:
  HONO-2 :    2 A1 1.9998913
  HONO-1 :    3 A1 1.9987535
  HONO-0 :    1 B1 1.0000000
  LUNO+0 :    4 A1 0.0012465
  LUNO+1 :    5 A1 0.0001087
  LUNO+2 :    6 A1 0.0000007
  LUNO+3 :    7 A1 0.0000000

Computation Completed

Properties will be evaluated at   0.000000,   0.000000,   0.000000 [a0]

Properties computed using the B3LYP density matrix

 Multipole Moments:

 ------------------------------------------------------------------------------------
     Multipole            Electronic (a.u.)      Nuclear  (a.u.)        Total (a.u.)
 ------------------------------------------------------------------------------------

 L = 1.  Multiply by 2.5417464519 to convert [e a0] to [Debye]
 Dipole X            :          0.0000000            0.0000000            0.0000000
 Dipole Y            :          0.0000000            0.0000000            0.0000000
 Dipole Z            :         -0.0889580            0.7972861            0.7083282
 Magnitude           :                                                    0.7083282

 L = 2.  Multiply by 1.3450342976 to convert [e a0^2] to [Debye ang]
 Quadrupole XX       :         -5.5560200            0.0000000           -5.5560200
 Quadrupole XY       :          0.0000000            0.0000000            0.0000000
 Quadrupole XZ       :          0.0000000            0.0000000            0.0000000
 Quadrupole YY       :         -4.0560621            0.0000000           -4.0560621
 Quadrupole YZ       :          0.0000000            0.0000000            0.0000000
 Quadrupole ZZ       :         -8.1639881            2.6922383           -5.4717498
 Traceless XX        :          0.3693368           -0.8974128           -0.5280760
 Traceless YY        :          1.8692946           -0.8974128            0.9718819
 Traceless ZZ        :         -2.2386314            1.7948256           -0.4438059

 ------------------------------------------------------------------------------------
  ==> Computing MBIS Charges <==

  Electron Count from Grid (Expected Number):  7.00000 ( 7.00000)
  Difference:  0.00000

  MBIS Charges: (a.u.)
   Center  Symbol  Z      Pop.       Charge
      1       C    6    6.135108   -0.135108
      2       H    1    0.864892    0.135108

  MBIS Dipoles: [e a0]
   Center  Symbol  Z        X           Y           Z
      1       C    6   -0.000000   -0.000000    0.434739
      2       H    1   -0.000000    0.000000    0.038214

  MBIS Quadrupoles: [e a0^2]
   Center  Symbol  Z      XX        XY        XZ        YY        YZ        ZZ
      1       C    6   -5.1617    0.0000    0.0000   -3.7173   -0.0000   -5.4418
      2       H    1   -0.3943   -0.0000   -0.0000   -0.3388    0.0000   -0.3819

  MBIS Octupoles: [e a0^3]
   Center  Symbol  Z      XXX       XXY       XXZ       XYY       XYZ       XZZ       YYY       YYZ       YZZ       ZZZ
      1       C    6    0.0000    0.0000    0.6680    0.0000   -0.0000    0.0000    0.0000    0.7522    0.0000    1.4746
      2       H    1    0.0000    0.0000    0.0089    0.0000   -0.0000    0.0000   -0.0000   -0.0109   -0.0000   -0.0049

  MBIS Radial Moments:
   Center  Symbol  Z      [a0^2]      [a0^3]      [a0^4]
      1       C    6   14.320771   35.651869   105.719496
      2       H    1    1.115045    1.796344    3.479665

  MBIS Valence Widths: [a0]
   Center  Symbol  Z     Width
      1       C    6    0.521028
      2       H    1    0.331517

*** tstop() called on Mac.lan at Sun Aug 10 17:08:39 2025
Module time:
	user time   =       2.59 seconds =       0.04 minutes
	system time =       2.19 seconds =       0.04 minutes
	total time  =          1 seconds =       0.02 minutes
Total time:
	user time   =      11.12 seconds =       0.19 minutes
	system time =       4.10 seconds =       0.07 minutes
	total time  =          2 seconds =       0.03 minutes

    Psi4 stopped on: Sunday, 10 August 2025 05:08PM
    Psi4 wall time for execution: 0:00:01.50

*** Psi4 exiting successfully. Buy a developer a beer!
