                               Psi4 1.9.1 release

  ==> Input File <==

--------------------------------------------------------------------------
molecule {
0 2
N           0.000000           0.000000           0.000000
C           0.000000           0.000000           0.783099
}

set {
basis              cc-pvtz
reference          uks
maxiter            500
DAMPING_PERCENTAGE 1
E_CONVERGENCE      1.0E-8
D_CONVERGENCE      1.0E-8
DIIS_MAX_VECS      400
MBIS_MAXITER       8000
guess              read
}

E, wfn = energy('b3lyp', restart_file='last_wfn', return_wfn=True)
properties('b3lyp','MBIS_CHARGES', wfn=wfn)
wfn.to_file('last_wfn')
--------------------------------------------------------------------------

    Molecular point group: c2v
  Charge       = 0
  Multiplicity = 2
  Basis Set: CC-PVTZ
    Blend: CC-PVTZ
  Basis Set: (CC-PVTZ AUX)
    Blend: CC-PVTZ-JKFIT
  @DF-UKS Final Energy:   -91.99751503534975
    Total Energy =                        -91.9975150353497497
 Dipole X            :          0.0000000            0.0000000            0.0000000
 Dipole Y            :          0.0000000            0.0000000            0.0000000
 Dipole Z            :          0.8469401            0.0010497            0.8479897
 Magnitude           :                                                    0.8479897
    Molecular point group: c2v

    Geometry (in Angstrom), charge = 0, multiplicity = 2:

       Center              X                  Y                   Z               Mass
    ------------   -----------------  -----------------  -----------------  -----------------
         N            0.000000000000     0.000000000000    -0.361387580499    14.003074004430
         C            0.000000000000     0.000000000000     0.421711419501    12.000000000000

  Charge       = 0
  Multiplicity = 2
  Basis Set: CC-PVTZ
    Blend: CC-PVTZ
  Basis Set: (CC-PVTZ AUX)
    Blend: CC-PVTZ-JKFIT

    Orbital Energies [Eh]
    ---------------------

    Alpha Occupied:

       1A1   -14.258646     2A1   -10.211148     3A1    -1.014126
       1B1    -0.517898     1B2    -0.517898     4A1    -0.449674
       5A1    -0.351117

    Alpha Virtual:

       2B1     0.127306     2B2     0.127306     6A1     0.187138
       7A1     0.234015     3B2     0.286972     3B1     0.286972
       8A1     0.473075     4B1     0.559210     4B2     0.559210
       1A2     0.617613     9A1     0.617613    10A1     0.829334
       5B1     0.993611     5B2     0.993611    11A1     1.105430
      12A1     1.286951     2A2     1.286951     6B1     1.518860
       6B2     1.518860    13A1     1.559401     7B2     1.928698
       7B1     1.928698    14A1     2.254359    15A1     2.497388
       8B2     2.598902     8B1     2.598902     3A2     2.807191
      16A1     2.807191     9B2     2.884793     9B1     2.884793
      17A1     2.931299    18A1     2.982315     4A2     2.982315
      10B1     3.388302    10B2     3.388302    19A1     3.481120
      11B1     3.780354    11B2     3.780354    12B1     4.159154
      12B2     4.159154    20A1     4.570206     5A2     4.570206
      21A1     4.756697    13B2     5.213620    13B1     5.213620
      22A1     5.364453     6A2     5.364453    23A1     5.712148
      14B1     6.552046    14B2     6.552046    24A1     6.576613
      25A1     8.058042    26A1    18.269751

    Beta Occupied:

       1A1   -14.256326     2A1   -10.191418     3A1    -1.000180
       1B1    -0.504971     1B2    -0.504971     4A1    -0.348926

    Beta Virtual:

       5A1    -0.224286     2B1     0.145338     2B2     0.145338
       6A1     0.194173     7A1     0.282349     3B2     0.302881
       3B1     0.302881     8A1     0.487155     4B1     0.576136
       4B2     0.576136     1A2     0.632049     9A1     0.632049
      10A1     0.878727     5B1     1.018444     5B2     1.018444
      11A1     1.117959     2A2     1.289707    12A1     1.289707
       6B1     1.529676     6B2     1.529676    13A1     1.603396
       7B2     1.951087     7B1     1.951087    14A1     2.287676
      15A1     2.578103     8B2     2.619916     8B1     2.619916
       3A2     2.833377    16A1     2.833377     9B2     2.980179
       9B1     2.980179    17A1     3.001102     4A2     3.037734
      18A1     3.037738    10B1     3.394939    10B2     3.394939
      19A1     3.530012    11B1     3.811422    11B2     3.811422
      12B1     4.159760    12B2     4.159760    20A1     4.565694
       5A2     4.565694    21A1     4.772984    13B2     5.224167
      13B1     5.224167     6A2     5.375483    22A1     5.375484
      23A1     5.727428    14B1     6.579885    14B2     6.579885
      24A1     6.617429    25A1     8.072772    26A1    18.298375

    Final Occupation by Irrep:
             A1    A2    B1    B2
    DOCC [     4,    0,    1,    1 ]
    SOCC [     1,    0,    0,    0 ]
    NA   [     5,    0,    1,    1 ]
    NB   [     4,    0,    1,    1 ]

  @DF-UKS Final Energy:   -91.99751503567376

   => Energetics <=

    Nuclear Repulsion Energy =             28.3813960280117890
    One-Electron Energy =                -179.1913950043641819
    Two-Electron Energy =                  69.1642034705876085
    DFT Exchange-Correlation Energy =     -10.3517195299089622
    Empirical Dispersion Energy =           0.0000000000000000
    VV10 Nonlocal Energy =                  0.0000000000000000
    Total Energy =                        -91.9975150356737572

  UHF NO Occupations:
  HONO-2 :    1 B1 1.9991686
  HONO-1 :    1 B2 1.9991686
  HONO-0 :    5 A1 1.0000000
  LUNO+0 :    2 B1 0.0008314
  LUNO+1 :    2 B2 0.0008314
  LUNO+2 :    6 A1 0.0000554
  LUNO+3 :    7 A1 0.0000052

Computation Completed

Properties will be evaluated at   0.000000,   0.000000,   0.000000 [a0]

Properties computed using the B3LYP density matrix

 Multipole Moments:

 ------------------------------------------------------------------------------------
     Multipole            Electronic (a.u.)      Nuclear  (a.u.)        Total (a.u.)
 ------------------------------------------------------------------------------------

 L = 1.  Multiply by 2.5417464519 to convert [e a0] to [Debye]
 Dipole X            :          0.0000000            0.0000000            0.0000000
 Dipole Y            :          0.0000000            0.0000000            0.0000000
 Dipole Z            :          0.8469401            0.0010497            0.8479897
 Magnitude           :                                                    0.8479897

 L = 2.  Multiply by 1.3450342976 to convert [e a0^2] to [Debye ang]
 Quadrupole XX       :         -6.9385553            0.0000000           -6.9385553
 Quadrupole XY       :          0.0000000            0.0000000            0.0000000
 Quadrupole XZ       :          0.0000000            0.0000000            0.0000000
 Quadrupole YY       :         -6.9385553            0.0000000           -6.9385553
 Quadrupole YZ       :          0.0000000            0.0000000            0.0000000
 Quadrupole ZZ       :        -14.6948823            7.0751722           -7.6197100
 Traceless XX        :          2.5854423           -2.3583907            0.2270516
 Traceless YY        :          2.5854423           -2.3583907            0.2270516
 Traceless ZZ        :         -5.1708847            4.7167815           -0.4541032

 ------------------------------------------------------------------------------------
  ==> Computing MBIS Charges <==

  Electron Count from Grid (Expected Number): 13.00000 (13.00000)
  Difference:  0.00000

  MBIS Charges: (a.u.)
   Center  Symbol  Z      Pop.       Charge
      1       N    7    7.564907   -0.564907
      2       C    6    5.435093    0.564907

  MBIS Dipoles: [e a0]
   Center  Symbol  Z        X           Y           Z
      1       N    7   -0.000000   -0.000000   -0.055619
      2       C    6   -0.000000    0.000000    0.067636

  MBIS Quadrupoles: [e a0^2]
   Center  Symbol  Z      XX        XY        XZ        YY        YZ        ZZ
      1       N    7   -4.0479    0.0000   -0.0000   -4.0479    0.0000   -4.6927
      2       C    6   -2.8907    0.0000    0.0000   -2.8907    0.0000   -3.2060

  MBIS Octupoles: [e a0^3]
   Center  Symbol  Z      XXX       XXY       XXZ       XYY       XYZ       XZZ       YYY       YYZ       YZZ       ZZZ
      1       N    7   -0.0000   -0.0000    0.0598   -0.0000    0.0000   -0.0000   -0.0000    0.0598    0.0000    0.5965
      2       C    6   -0.0000   -0.0000   -0.1250   -0.0000    0.0000    0.0000    0.0000   -0.1250    0.0000   -0.4800

  MBIS Radial Moments:
   Center  Symbol  Z      [a0^2]      [a0^3]      [a0^4]
      1       N    7   12.788492   26.588255   66.645198
      2       C    6    8.987394   19.545498   51.563249

  MBIS Valence Widths: [a0]
   Center  Symbol  Z     Width
      1       N    7    0.423671
      2       C    6    0.443137

*** tstop() called on Mac.lan at Sun Aug 10 17:13:30 2025
Module time:
	user time   =       3.86 seconds =       0.06 minutes
	system time =       2.72 seconds =       0.05 minutes
	total time  =          1 seconds =       0.02 minutes
Total time:
	user time   =      17.81 seconds =       0.30 minutes
	system time =       5.28 seconds =       0.09 minutes
	total time  =          3 seconds =       0.05 minutes

    Psi4 stopped on: Sunday, 10 August 2025 05:13PM
    Psi4 wall time for execution: 0:00:02.24

*** Psi4 exiting successfully. Buy a developer a beer!
