                               Psi4 1.9.1 release

  ==> Input File <==

--------------------------------------------------------------------------
molecule {
0 1
N           0.000000           0.000000           0.000000
N           0.000000           0.000000           0.995557
}

set {
basis              cc-pvtz
reference          uks
maxiter            500
DAMPING_PERCENTAGE 1
E_CONVERGENCE      1.0E-8
D_CONVERGENCE      1.0E-8
DIIS_MAX_VECS      400
MBIS_MAXITER       8000
guess              read
}

E, wfn = energy('b3lyp', restart_file='last_wfn', return_wfn=True)
properties('b3lyp','MBIS_CHARGES', wfn=wfn)
wfn.to_file('last_wfn')
--------------------------------------------------------------------------

    Molecular point group: d2h
  Charge       = 0
  Multiplicity = 1
  Basis Set: CC-PVTZ
    Blend: CC-PVTZ
  Basis Set: (CC-PVTZ AUX)
    Blend: CC-PVTZ-JKFIT
  @DF-UKS Final Energy:  -109.53544294152728
    Total Energy =                       -109.5354429415272790
 Dipole X            :          0.0000000            0.0000000            0.0000000
 Dipole Y            :          0.0000000            0.0000000            0.0000000
 Dipole Z            :          0.0000000           -0.0000000           -0.0000000
 Magnitude           :                                                    0.0000000
    Molecular point group: d2h

    Geometry (in Angstrom), charge = 0, multiplicity = 1:

       Center              X                  Y                   Z               Mass
    ------------   -----------------  -----------------  -----------------  -----------------
         N            0.000000000000     0.000000000000    -0.497778500000    14.003074004430
         N            0.000000000000     0.000000000000     0.497778500000    14.003074004430

  Charge       = 0
  Multiplicity = 1
  Basis Set: CC-PVTZ
    Blend: CC-PVTZ
  Basis Set: (CC-PVTZ AUX)
    Blend: CC-PVTZ-JKFIT

    Orbital Energies [Eh]
    ---------------------

    Alpha Occupied:

       1Ag   -14.390925     1B1u  -14.386428     2Ag    -1.187099
       2B1u   -0.527227     1B3u   -0.505427     1B2u   -0.505427
       3Ag    -0.439084

    Alpha Virtual:

       1B2g    0.023681     1B3g    0.023681     3B1u    0.303439
       2B3u    0.375724     2B2u    0.375724     4Ag     0.399001
       5Ag     0.494608     2B3g    0.547890     2B2g    0.547890
       4B1u    0.763451     6Ag     0.828273     1B1g    0.828273
       5B1u    0.999818     3B2u    1.161704     3B3u    1.161704
       6B1u    1.304019     1Au     1.304019     7Ag     1.656671
       3B3g    1.692834     3B2g    1.692834     7B1u    2.148746
       4B2u    2.721747     4B3u    2.721747     8Ag     2.987457
       4B3g    3.183969     4B2g    3.183969     8B1u    3.328395
       9Ag     3.498720     2B1g    3.498720     5B2u    3.546236
       5B3u    3.546236     6B2u    3.691668     6B3u    3.691668
      10Ag     4.066296     5B3g    4.162600     5B2g    4.162600
      11Ag     4.373342     3B1g    4.373342     6B3g    4.373579
       6B2g    4.373579     9B1u    4.493030     2Au     4.493031
      10B1u    4.884417    12Ag     4.951741     7B3u    5.146535
       7B2u    5.146535    11B1u    5.154120     3Au     5.154121
      12B1u    6.043345     7B3g    6.863556     7B2g    6.863556
      13Ag     7.239447    13B1u   19.774281

    Beta Occupied:

       1Ag   -14.390925     1B1u  -14.386428     2Ag    -1.187099
       2B1u   -0.527227     1B3u   -0.505427     1B2u   -0.505427
       3Ag    -0.439084

    Beta Virtual:

       1B2g    0.023681     1B3g    0.023681     3B1u    0.303439
       2B3u    0.375724     2B2u    0.375724     4Ag     0.399001
       5Ag     0.494608     2B3g    0.547890     2B2g    0.547890
       4B1u    0.763451     6Ag     0.828273     1B1g    0.828273
       5B1u    0.999818     3B2u    1.161704     3B3u    1.161704
       6B1u    1.304019     1Au     1.304019     7Ag     1.656671
       3B3g    1.692834     3B2g    1.692834     7B1u    2.148746
       4B2u    2.721747     4B3u    2.721747     8Ag     2.987457
       4B3g    3.183969     4B2g    3.183969     8B1u    3.328395
       9Ag     3.498720     2B1g    3.498720     5B2u    3.546236
       5B3u    3.546236     6B2u    3.691668     6B3u    3.691668
      10Ag     4.066296     5B3g    4.162600     5B2g    4.162600
      11Ag     4.373342     3B1g    4.373342     6B3g    4.373579
       6B2g    4.373579     9B1u    4.493030     2Au     4.493031
      10B1u    4.884417    12Ag     4.951741     7B3u    5.146535
       7B2u    5.146535    11B1u    5.154120     3Au     5.154121
      12B1u    6.043345     7B3g    6.863556     7B2g    6.863556
      13Ag     7.239447    13B1u   19.774281

    Final Occupation by Irrep:
             Ag   B1g   B2g   B3g    Au   B1u   B2u   B3u
    DOCC [     3,    0,    0,    0,    0,    2,    1,    1 ]
    SOCC [     0,    0,    0,    0,    0,    0,    0,    0 ]
    NA   [     3,    0,    0,    0,    0,    2,    1,    1 ]
    NB   [     3,    0,    0,    0,    0,    2,    1,    1 ]

  @DF-UKS Final Energy:  -109.53544294148287

   => Energetics <=

    Nuclear Repulsion Energy =             26.0454030485748227
    One-Electron Energy =                -199.2247591032986520
    Two-Electron Energy =                  74.8437003352841543
    DFT Exchange-Correlation Energy =     -11.1997872220432022
    Empirical Dispersion Energy =           0.0000000000000000
    VV10 Nonlocal Energy =                  0.0000000000000000
    Total Energy =                       -109.5354429414828701

  UHF NO Occupations:
  HONO-2 :    3 Ag 2.0000000
  HONO-1 :    1B3u 2.0000000
  HONO-0 :    2B1u 2.0000000
  LUNO+0 :    3B1u 0.0000000
  LUNO+1 :    4B1u 0.0000000
  LUNO+2 :    4 Ag 0.0000000
  LUNO+3 :    2B3u 0.0000000

Computation Completed

Properties will be evaluated at   0.000000,   0.000000,   0.000000 [a0]

Properties computed using the B3LYP density matrix

 Multipole Moments:

 ------------------------------------------------------------------------------------
     Multipole            Electronic (a.u.)      Nuclear  (a.u.)        Total (a.u.)
 ------------------------------------------------------------------------------------

 L = 1.  Multiply by 2.5417464519 to convert [e a0] to [Debye]
 Dipole X            :          0.0000000            0.0000000            0.0000000
 Dipole Y            :          0.0000000            0.0000000            0.0000000
 Dipole Z            :          0.0000000           -0.0000000           -0.0000000
 Magnitude           :                                                    0.0000000

 L = 2.  Multiply by 1.3450342976 to convert [e a0^2] to [Debye ang]
 Quadrupole XX       :         -7.2935331            0.0000000           -7.2935331
 Quadrupole XY       :          0.0000000            0.0000000            0.0000000
 Quadrupole XZ       :          0.0000000            0.0000000            0.0000000
 Quadrupole YY       :         -7.2935331            0.0000000           -7.2935331
 Quadrupole YZ       :          0.0000000            0.0000000            0.0000000
 Quadrupole ZZ       :        -21.0645165           12.3879099           -8.6766065
 Traceless XX        :          4.5903278           -4.1293033            0.4610245
 Traceless YY        :          4.5903278           -4.1293033            0.4610245
 Traceless ZZ        :         -9.1806556            8.2586066           -0.9220490

 ------------------------------------------------------------------------------------
  ==> Computing MBIS Charges <==

  Electron Count from Grid (Expected Number): 14.00000 (14.00000)
  Difference: -0.00000

  MBIS Charges: (a.u.)
   Center  Symbol  Z      Pop.       Charge
      1       N    7    7.000000    0.000000
      2       N    7    7.000000    0.000000

  MBIS Dipoles: [e a0]
   Center  Symbol  Z        X           Y           Z
      1       N    7   -0.000000   -0.000000    0.087068
      2       N    7   -0.000000   -0.000000   -0.087068

  MBIS Quadrupoles: [e a0^2]
   Center  Symbol  Z      XX        XY        XZ        YY        YZ        ZZ
      1       N    7   -3.6468    0.0000   -0.0000   -3.6468    0.0000   -4.1745
      2       N    7   -3.6468   -0.0000    0.0000   -3.6468   -0.0000   -4.1745

  MBIS Octupoles: [e a0^3]
   Center  Symbol  Z      XXX       XXY       XXZ       XYY       XYZ       XZZ       YYY       YYZ       YZZ       ZZZ
      1       N    7   -0.0000   -0.0000    0.1047   -0.0000    0.0000    0.0000   -0.0000    0.1047   -0.0000    0.3474
      2       N    7   -0.0000   -0.0000   -0.1047    0.0000   -0.0000    0.0000   -0.0000   -0.1047   -0.0000   -0.3474

  MBIS Radial Moments:
   Center  Symbol  Z      [a0^2]      [a0^3]      [a0^4]
      1       N    7   11.468033   23.378021   56.969156
      2       N    7   11.468033   23.378021   56.969156

  MBIS Valence Widths: [a0]
   Center  Symbol  Z     Width
      1       N    7    0.424120
      2       N    7    0.424120

*** tstop() called on Mac.lan at Sun Aug 10 17:05:45 2025
Module time:
	user time   =       3.37 seconds =       0.06 minutes
	system time =       2.63 seconds =       0.04 minutes
	total time  =          1 seconds =       0.02 minutes
Total time:
	user time   =      15.49 seconds =       0.26 minutes
	system time =       4.88 seconds =       0.08 minutes
	total time  =          2 seconds =       0.03 minutes

    Psi4 stopped on: Sunday, 10 August 2025 05:05PM
    Psi4 wall time for execution: 0:00:01.98

*** Psi4 exiting successfully. Buy a developer a beer!
