                               Psi4 1.9.1 release

  ==> Input File <==

--------------------------------------------------------------------------
molecule {
0 1
O           0.000000           0.000000           0.000000
C           0.000000           0.000000           0.717046
}

set {
basis              cc-pvtz
reference          uks
maxiter            500
DAMPING_PERCENTAGE 1
E_CONVERGENCE      1.0E-8
D_CONVERGENCE      1.0E-8
DIIS_MAX_VECS      400
MBIS_MAXITER       8000
guess              read
}

E, wfn = energy('b3lyp', restart_file='last_wfn', return_wfn=True)
properties('b3lyp','MBIS_CHARGES', wfn=wfn)
wfn.to_file('last_wfn')
--------------------------------------------------------------------------

    Molecular point group: c2v
  Charge       = 0
  Multiplicity = 1
  Basis Set: CC-PVTZ
    Blend: CC-PVTZ
  Basis Set: (CC-PVTZ AUX)
    Blend: CC-PVTZ-JKFIT
  @DF-UKS Final Energy:  -112.21758886023881
    Total Energy =                       -112.2175888602388056
 Dipole X            :          0.0000000            0.0000000            0.0000000
 Dipole Y            :          0.0000000            0.0000000            0.0000000
 Dipole Z            :         -0.5186856           -0.0014769           -0.5201624
 Magnitude           :                                                    0.5201624
    Molecular point group: c2v

    Geometry (in Angstrom), charge = 0, multiplicity = 1:

       Center              X                  Y                   Z               Mass
    ------------   -----------------  -----------------  -----------------  -----------------
         O            0.000000000000     0.000000000000    -0.307361251746    15.994914619570
         C            0.000000000000     0.000000000000     0.409684748254    12.000000000000

  Charge       = 0
  Multiplicity = 1
  Basis Set: CC-PVTZ
    Blend: CC-PVTZ
  Basis Set: (CC-PVTZ AUX)
    Blend: CC-PVTZ-JKFIT

    Orbital Energies [Eh]
    ---------------------

    Alpha Occupied:

       1A1   -19.205585     2A1   -10.200552     3A1    -1.309814
       1B2    -0.693281     1B1    -0.693281     4A1    -0.567353
       5A1    -0.329162

    Alpha Virtual:

       2B1     0.130226     2B2     0.130226     6A1     0.170564
       7A1     0.301793     3B1     0.322591     3B2     0.322591
       8A1     0.550193     4B2     0.620353     4B1     0.620353
       1A2     0.634144     9A1     0.634144    10A1     0.876730
       5B2     1.070973     5B1     1.070973    11A1     1.330736
       6B2     1.613297     6B1     1.613297    12A1     1.629199
       2A2     1.629199    13A1     1.784205    14A1     2.313889
       7B1     2.323701     7B2     2.323701     8B2     2.635315
       8B1     2.635315    15A1     2.790006     3A2     2.879741
      16A1     2.879741     9B2     3.073215     9B1     3.073215
       4A2     3.184140    17A1     3.184140    18A1     3.209799
      10B1     3.988533    10B2     3.988533    11B2     4.249349
      11B1     4.249349    19A1     4.407980    12B2     5.256364
      12B1     5.256364    20A1     5.833320    21A1     6.206969
       5A2     6.206971    22A1     6.463132     6A2     6.463132
      13B1     6.596716    13B2     6.596716    23A1     6.627254
      24A1     7.520711    14B1     7.768568    14B2     7.768568
      25A1    10.179907    26A1    17.591820

    Beta Occupied:

       1A1   -19.205585     2A1   -10.200552     3A1    -1.309814
       1B2    -0.693281     1B1    -0.693281     4A1    -0.567353
       5A1    -0.329162

    Beta Virtual:

       2B1     0.130226     2B2     0.130226     6A1     0.170564
       7A1     0.301793     3B1     0.322591     3B2     0.322591
       8A1     0.550193     4B2     0.620353     4B1     0.620353
       1A2     0.634144     9A1     0.634144    10A1     0.876730
       5B2     1.070973     5B1     1.070973    11A1     1.330736
       6B2     1.613297     6B1     1.613297    12A1     1.629199
       2A2     1.629199    13A1     1.784205    14A1     2.313889
       7B1     2.323701     7B2     2.323701     8B2     2.635315
       8B1     2.635315    15A1     2.790006     3A2     2.879741
      16A1     2.879741     9B2     3.073215     9B1     3.073215
       4A2     3.184140    17A1     3.184140    18A1     3.209799
      10B1     3.988533    10B2     3.988533    11B2     4.249349
      11B1     4.249349    19A1     4.407980    12B2     5.256364
      12B1     5.256364    20A1     5.833320    21A1     6.206969
       5A2     6.206971    22A1     6.463132     6A2     6.463132
      13B1     6.596716    13B2     6.596716    23A1     6.627254
      24A1     7.520711    14B1     7.768568    14B2     7.768568
      25A1    10.179907    26A1    17.591820

    Final Occupation by Irrep:
             A1    A2    B1    B2
    DOCC [     5,    0,    1,    1 ]
    SOCC [     0,    0,    0,    0 ]
    NA   [     5,    0,    1,    1 ]
    NB   [     5,    0,    1,    1 ]

  @DF-UKS Final Energy:  -112.21758886080372

   => Energetics <=

    Nuclear Repulsion Energy =             35.4238167595384468
    One-Electron Energy =                -220.7903820903135568
    Two-Electron Energy =                  84.9853430611506582
    DFT Exchange-Correlation Energy =     -11.8363665911792655
    Empirical Dispersion Energy =           0.0000000000000000
    VV10 Nonlocal Energy =                  0.0000000000000000
    Total Energy =                       -112.2175888608037155

  UHF NO Occupations:
  HONO-2 :    4 A1 2.0000000
  HONO-1 :    1 B2 2.0000000
  HONO-0 :    5 A1 2.0000000
  LUNO+0 :    6 A1 0.0000000
  LUNO+1 :    7 A1 0.0000000
  LUNO+2 :    8 A1 0.0000000
  LUNO+3 :    9 A1 0.0000000

Computation Completed

Properties will be evaluated at   0.000000,   0.000000,   0.000000 [a0]

Properties computed using the B3LYP density matrix

 Multipole Moments:

 ------------------------------------------------------------------------------------
     Multipole            Electronic (a.u.)      Nuclear  (a.u.)        Total (a.u.)
 ------------------------------------------------------------------------------------

 L = 1.  Multiply by 2.5417464519 to convert [e a0] to [Debye]
 Dipole X            :          0.0000000            0.0000000            0.0000000
 Dipole Y            :          0.0000000            0.0000000            0.0000000
 Dipole Z            :         -0.5186856           -0.0014769           -0.5201624
 Magnitude           :                                                    0.5201624

 L = 2.  Multiply by 1.3450342976 to convert [e a0^2] to [Debye ang]
 Quadrupole XX       :         -6.6318448            0.0000000           -6.6318448
 Quadrupole XY       :          0.0000000            0.0000000            0.0000000
 Quadrupole XZ       :          0.0000000            0.0000000            0.0000000
 Quadrupole YY       :         -6.6318448            0.0000000           -6.6318448
 Quadrupole YZ       :          0.0000000            0.0000000            0.0000000
 Quadrupole ZZ       :        -14.9259681            6.2951340           -8.6308340
 Traceless XX        :          2.7647077           -2.0983780            0.6663297
 Traceless YY        :          2.7647077           -2.0983780            0.6663297
 Traceless ZZ        :         -5.5294155            4.1967560           -1.3326595

 ------------------------------------------------------------------------------------
  ==> Computing MBIS Charges <==

  Electron Count from Grid (Expected Number): 14.00000 (14.00000)
  Difference:  0.00000

  MBIS Charges: (a.u.)
   Center  Symbol  Z      Pop.       Charge
      1       O    8    7.857830    0.142170
      2       C    6    6.142171   -0.142171

  MBIS Dipoles: [e a0]
   Center  Symbol  Z        X           Y           Z
      1       O    8   -0.000000   -0.000000   -0.002190
      2       C    6    0.000000    0.000000   -0.325328

  MBIS Quadrupoles: [e a0^2]
   Center  Symbol  Z      XX        XY        XZ        YY        YZ        ZZ
      1       O    8   -2.7769    0.0000    0.0000   -2.7769    0.0000   -3.2175
      2       C    6   -3.8550    0.0000    0.0000   -3.8550    0.0000   -4.8749

  MBIS Octupoles: [e a0^3]
   Center  Symbol  Z      XXX       XXY       XXZ       XYY       XYZ       XZZ       YYY       YYZ       YZZ       ZZZ
      1       O    8   -0.0000    0.0000    0.0593   -0.0000   -0.0000    0.0000   -0.0000    0.0593    0.0000    0.3189
      2       C    6   -0.0000    0.0000   -0.6436   -0.0000    0.0000   -0.0000    0.0000   -0.6436    0.0000   -1.5834

  MBIS Radial Moments:
   Center  Symbol  Z      [a0^2]      [a0^3]      [a0^4]
      1       O    8    8.771251   14.553069   29.090700
      2       C    6   12.584833   29.686747   83.453144

  MBIS Valence Widths: [a0]
   Center  Symbol  Z     Width
      1       O    8    0.341457
      2       C    6    0.483988

*** tstop() called on Mac.lan at Sun Aug 10 17:17:23 2025
Module time:
	user time   =       4.24 seconds =       0.07 minutes
	system time =       2.69 seconds =       0.04 minutes
	total time  =          1 seconds =       0.02 minutes
Total time:
	user time   =      20.40 seconds =       0.34 minutes
	system time =       4.67 seconds =       0.08 minutes
	total time  =          3 seconds =       0.05 minutes

    Psi4 stopped on: Sunday, 10 August 2025 05:17PM
    Psi4 wall time for execution: 0:00:02.55

*** Psi4 exiting successfully. Buy a developer a beer!
