                               Psi4 1.9.1 release

  ==> Input File <==

--------------------------------------------------------------------------
molecule {
0 1
H           0.000000           0.000000           0.000000
H           0.000000           0.000000           0.827764
}

set {
basis              cc-pvtz
reference          uks
maxiter            500
DAMPING_PERCENTAGE 1
E_CONVERGENCE      1.0E-8
D_CONVERGENCE      1.0E-8
DIIS_MAX_VECS      400
MBIS_MAXITER       8000
guess              read
}

E, wfn = energy('b3lyp', restart_file='last_wfn', return_wfn=True)
properties('b3lyp','MBIS_CHARGES', wfn=wfn)
wfn.to_file('last_wfn')
--------------------------------------------------------------------------

    Molecular point group: d2h
  Charge       = 0
  Multiplicity = 1
  Basis Set: CC-PVTZ
    Blend: CC-PVTZ
  Basis Set: (CC-PVTZ AUX)
    Blend: CC-PVTZ-JKFIT
  @DF-UKS Final Energy:    -1.17597436880604
    Total Energy =                         -1.1759743688060398
 Dipole X            :          0.0000000            0.0000000            0.0000000
 Dipole Y            :          0.0000000            0.0000000            0.0000000
 Dipole Z            :          0.0000000            0.0000000            0.0000000
 Magnitude           :                                                    0.0000000
    Molecular point group: d2h

    Geometry (in Angstrom), charge = 0, multiplicity = 1:

       Center              X                  Y                   Z               Mass
    ------------   -----------------  -----------------  -----------------  -----------------
         H            0.000000000000     0.000000000000    -0.413882000000     1.007825032230
         H            0.000000000000     0.000000000000     0.413882000000     1.007825032230

  Charge       = 0
  Multiplicity = 1
  Basis Set: CC-PVTZ
    Blend: CC-PVTZ
  Basis Set: (CC-PVTZ AUX)
    Blend: CC-PVTZ-JKFIT

    Orbital Energies [Eh]
    ---------------------

    Alpha Occupied:

       1Ag    -0.417531

    Alpha Virtual:

       1B1u    0.040882     2Ag     0.201625     2B1u    0.438470
       1B2u    0.504915     1B3u    0.504915     3Ag     0.883628
       1B2g    0.919354     1B3g    0.919354     3B1u    1.340281
       4B1u    2.079386     4Ag     2.134527     1B1g    2.885268
       5Ag     2.885268     2B3u    3.034977     2B2u    3.034977
       6Ag     3.304059     2B2g    3.653608     2B3g    3.653608
       1Au     3.706493     5B1u    3.706493     3B3u    3.733445
       3B2u    3.733445     6B1u    4.094578     3B3g    5.091590
       3B2g    5.091590     7Ag     5.133790     7B1u    6.207635

    Beta Occupied:

       1Ag    -0.417531

    Beta Virtual:

       1B1u    0.040882     2Ag     0.201625     2B1u    0.438470
       1B2u    0.504915     1B3u    0.504915     3Ag     0.883628
       1B2g    0.919354     1B3g    0.919354     3B1u    1.340281
       4B1u    2.079386     4Ag     2.134527     1B1g    2.885268
       5Ag     2.885268     2B3u    3.034977     2B2u    3.034977
       6Ag     3.304059     2B2g    3.653608     2B3g    3.653608
       1Au     3.706493     5B1u    3.706493     3B3u    3.733445
       3B2u    3.733445     6B1u    4.094578     3B3g    5.091590
       3B2g    5.091590     7Ag     5.133790     7B1u    6.207635

    Final Occupation by Irrep:
             Ag   B1g   B2g   B3g    Au   B1u   B2u   B3u
    DOCC [     1,    0,    0,    0,    0,    0,    0,    0 ]
    SOCC [     0,    0,    0,    0,    0,    0,    0,    0 ]
    NA   [     1,    0,    0,    0,    0,    0,    0,    0 ]
    NB   [     1,    0,    0,    0,    0,    0,    0,    0 ]

  @DF-UKS Final Energy:    -1.17597436867701

   => Energetics <=

    Nuclear Repulsion Energy =              0.6392851231389624
    One-Electron Energy =                  -2.3954668251250224
    Two-Electron Energy =                   1.1326148164157082
    DFT Exchange-Correlation Energy =      -0.5524074831066578
    Empirical Dispersion Energy =           0.0000000000000000
    VV10 Nonlocal Energy =                  0.0000000000000000
    Total Energy =                         -1.1759743686770099

  UHF NO Occupations:
  HONO-0 :    1 Ag 2.0000000
  LUNO+0 :    2 Ag 0.0000000
  LUNO+1 :    3 Ag 0.0000000
  LUNO+2 :    4 Ag 0.0000000
  LUNO+3 :    3B3u 0.0000000

Computation Completed

Properties will be evaluated at   0.000000,   0.000000,   0.000000 [a0]

Properties computed using the B3LYP density matrix

 Multipole Moments:

 ------------------------------------------------------------------------------------
     Multipole            Electronic (a.u.)      Nuclear  (a.u.)        Total (a.u.)
 ------------------------------------------------------------------------------------

 L = 1.  Multiply by 2.5417464519 to convert [e a0] to [Debye]
 Dipole X            :          0.0000000            0.0000000            0.0000000
 Dipole Y            :          0.0000000            0.0000000            0.0000000
 Dipole Z            :          0.0000000            0.0000000            0.0000000
 Magnitude           :                                                    0.0000000

 L = 2.  Multiply by 1.3450342976 to convert [e a0^2] to [Debye ang]
 Quadrupole XX       :         -1.6544572            0.0000000           -1.6544572
 Quadrupole XY       :          0.0000000            0.0000000            0.0000000
 Quadrupole XZ       :          0.0000000            0.0000000            0.0000000
 Quadrupole YY       :         -1.6544572            0.0000000           -1.6544572
 Quadrupole YZ       :          0.0000000            0.0000000            0.0000000
 Quadrupole ZZ       :         -2.3722248            1.2234347           -1.1487900
 Traceless XX        :          0.2392559           -0.4078116           -0.1685557
 Traceless YY        :          0.2392559           -0.4078116           -0.1685557
 Traceless ZZ        :         -0.4785117            0.8156232            0.3371114

 ------------------------------------------------------------------------------------
  ==> Computing MBIS Charges <==

  Electron Count from Grid (Expected Number):  2.00000 ( 2.00000)
  Difference:  0.00000

  MBIS Charges: (a.u.)
   Center  Symbol  Z      Pop.       Charge
      1       H    1    1.000000   -0.000000
      2       H    1    1.000000   -0.000000

  MBIS Dipoles: [e a0]
   Center  Symbol  Z        X           Y           Z
      1       H    1   -0.000000   -0.000000   -0.101781
      2       H    1   -0.000000    0.000000    0.101781

  MBIS Quadrupoles: [e a0^2]
   Center  Symbol  Z      XX        XY        XZ        YY        YZ        ZZ
      1       H    1   -0.8272    0.0000   -0.0000   -0.8272   -0.0000   -0.7336
      2       H    1   -0.8272    0.0000    0.0000   -0.8272   -0.0000   -0.7336

  MBIS Octupoles: [e a0^3]
   Center  Symbol  Z      XXX       XXY       XXZ       XYY       XYZ       XZZ       YYY       YYZ       YZZ       ZZZ
      1       H    1   -0.0000    0.0000   -0.0646    0.0000   -0.0000   -0.0000   -0.0000   -0.0646    0.0000   -0.0976
      2       H    1    0.0000   -0.0000    0.0646    0.0000    0.0000    0.0000    0.0000    0.0646   -0.0000    0.0976

  MBIS Radial Moments:
   Center  Symbol  Z      [a0^2]      [a0^3]      [a0^4]
      1       H    1    2.388063    5.401444   14.802571
      2       H    1    2.388063    5.401444   14.802571

  MBIS Valence Widths: [a0]
   Center  Symbol  Z     Width
      1       H    1    0.444781
      2       H    1    0.444781

*** tstop() called on Mac.lan at Sun Aug 10 16:59:41 2025
Module time:
	user time   =       0.58 seconds =       0.01 minutes
	system time =       1.26 seconds =       0.02 minutes
	total time  =          0 seconds =       0.00 minutes
Total time:
	user time   =       1.49 seconds =       0.02 minutes
	system time =       3.47 seconds =       0.06 minutes
	total time  =          1 seconds =       0.02 minutes

    Psi4 stopped on: Sunday, 10 August 2025 04:59PM
    Psi4 wall time for execution: 0:00:00.76

*** Psi4 exiting successfully. Buy a developer a beer!
