                               Psi4 1.9.1 release

  ==> Input File <==

--------------------------------------------------------------------------
molecule {
0 1
O           0.000000           0.000000           0.000000
C           0.000000           0.000000           1.275515
}

set {
basis              cc-pvtz
reference          uks
maxiter            500
DAMPING_PERCENTAGE 1
E_CONVERGENCE      1.0E-8
D_CONVERGENCE      1.0E-8
DIIS_MAX_VECS      400
MBIS_MAXITER       8000
guess              read
}

E, wfn = energy('b3lyp', restart_file='last_wfn', return_wfn=True)
properties('b3lyp','MBIS_CHARGES', wfn=wfn)
wfn.to_file('last_wfn')
--------------------------------------------------------------------------

    Molecular point group: c2v
  Charge       = 0
  Multiplicity = 1
  Basis Set: CC-PVTZ
    Blend: CC-PVTZ
  Basis Set: (CC-PVTZ AUX)
    Blend: CC-PVTZ-JKFIT
  @DF-UKS Final Energy:  -113.32101577828148
    Total Energy =                       -113.3210157782814775
 Dipole X            :          0.0000000            0.0000000            0.0000000
 Dipole Y            :          0.0000000            0.0000000            0.0000000
 Dipole Z            :          0.1613580           -0.0026271            0.1587309
 Magnitude           :                                                    0.1587309
    Molecular point group: c2v

    Geometry (in Angstrom), charge = 0, multiplicity = 1:

       Center              X                  Y                   Z               Mass
    ------------   -----------------  -----------------  -----------------  -----------------
         O            0.000000000000     0.000000000000    -0.546748586592    15.994914619570
         C            0.000000000000     0.000000000000     0.728766413408    12.000000000000

  Charge       = 0
  Multiplicity = 1
  Basis Set: CC-PVTZ
    Blend: CC-PVTZ
  Basis Set: (CC-PVTZ AUX)
    Blend: CC-PVTZ-JKFIT

    Orbital Energies [Eh]
    ---------------------

    Alpha Occupied:

       1A1   -19.242278     2A1   -10.342725     3A1    -1.092978
       4A1    -0.582168     1B1    -0.436573     1B2    -0.436573
       5A1    -0.393956

    Alpha Virtual:

       2B1    -0.083950     2B2    -0.083950     6A1     0.148495
       3B2     0.287723     3B1     0.287723     7A1     0.302614
       8A1     0.422021     9A1     0.538346     4B2     0.616400
       4B1     0.616400    10A1     0.632976     1A2     0.632976
       5B1     0.801806     5B2     0.801806    11A1     1.087519
      12A1     1.195306    13A1     1.473304     2A2     1.473305
       6B2     1.770909     6B1     1.770909    14A1     1.992165
       7B1     1.997210     7B2     1.997210    15A1     2.231050
       8B1     2.625215     8B2     2.625215    16A1     2.731369
       3A2     2.731369     4A2     2.906241    17A1     2.906241
       9B1     2.909405     9B2     2.909405    18A1     3.116795
      10B2     3.145350    10B1     3.145350    19A1     3.185910
      11B2     3.892355    11B1     3.892355    20A1     3.994197
      12B2     5.067756    12B1     5.067756    21A1     5.303227
       5A2     5.303228    22A1     5.662612    13B1     5.849809
      13B2     5.849809    23A1     6.194175     6A2     6.194193
      24A1     6.377674    14B2     6.678415    14B1     6.678415
      25A1     7.018910    26A1    10.166109

    Beta Occupied:

       1A1   -19.242278     2A1   -10.342725     3A1    -1.092978
       4A1    -0.582168     1B1    -0.436573     1B2    -0.436573
       5A1    -0.393956

    Beta Virtual:

       2B1    -0.083950     2B2    -0.083950     6A1     0.148495
       3B2     0.287723     3B1     0.287723     7A1     0.302614
       8A1     0.422021     9A1     0.538346     4B2     0.616400
       4B1     0.616400    10A1     0.632976     1A2     0.632976
       5B1     0.801806     5B2     0.801806    11A1     1.087519
      12A1     1.195306    13A1     1.473304     2A2     1.473305
       6B2     1.770909     6B1     1.770909    14A1     1.992165
       7B1     1.997210     7B2     1.997210    15A1     2.231050
       8B1     2.625215     8B2     2.625215    16A1     2.731369
       3A2     2.731369     4A2     2.906241    17A1     2.906241
       9B1     2.909405     9B2     2.909405    18A1     3.116795
      10B2     3.145350    10B1     3.145350    19A1     3.185910
      11B2     3.892355    11B1     3.892355    20A1     3.994197
      12B2     5.067756    12B1     5.067756    21A1     5.303227
       5A2     5.303228    22A1     5.662612    13B1     5.849809
      13B2     5.849809    23A1     6.194175     6A2     6.194193
      24A1     6.377674    14B2     6.678415    14B1     6.678415
      25A1     7.018910    26A1    10.166109

    Final Occupation by Irrep:
             A1    A2    B1    B2
    DOCC [     5,    0,    1,    1 ]
    SOCC [     0,    0,    0,    0 ]
    NA   [     5,    0,    1,    1 ]
    NB   [     5,    0,    1,    1 ]

  @DF-UKS Final Energy:  -113.32101577364652

   => Energetics <=

    Nuclear Repulsion Energy =             19.9139219155870428
    One-Electron Energy =                -193.4073918623300585
    Two-Electron Energy =                  71.3010414762171791
    DFT Exchange-Correlation Energy =     -11.1285873031206979
    Empirical Dispersion Energy =           0.0000000000000000
    VV10 Nonlocal Energy =                  0.0000000000000000
    Total Energy =                       -113.3210157736465220

  UHF NO Occupations:
  HONO-2 :    5 A1 2.0000000
  HONO-1 :    1 B2 2.0000000
  HONO-0 :    1 B1 2.0000000
  LUNO+0 :    6 A1 0.0000000
  LUNO+1 :    7 A1 0.0000000
  LUNO+2 :    8 A1 0.0000000
  LUNO+3 :    9 A1 0.0000000

Computation Completed

Properties will be evaluated at   0.000000,   0.000000,   0.000000 [a0]

Properties computed using the B3LYP density matrix

 Multipole Moments:

 ------------------------------------------------------------------------------------
     Multipole            Electronic (a.u.)      Nuclear  (a.u.)        Total (a.u.)
 ------------------------------------------------------------------------------------

 L = 1.  Multiply by 2.5417464519 to convert [e a0] to [Debye]
 Dipole X            :          0.0000000            0.0000000            0.0000000
 Dipole Y            :          0.0000000            0.0000000            0.0000000
 Dipole Z            :          0.1613580           -0.0026271            0.1587309
 Magnitude           :                                                    0.1587309

 L = 2.  Multiply by 1.3450342976 to convert [e a0^2] to [Debye ang]
 Quadrupole XX       :         -7.8068854            0.0000000           -7.8068854
 Quadrupole XY       :          0.0000000            0.0000000            0.0000000
 Quadrupole XZ       :          0.0000000            0.0000000            0.0000000
 Quadrupole YY       :         -7.8068854            0.0000000           -7.8068854
 Quadrupole YZ       :          0.0000000            0.0000000            0.0000000
 Quadrupole ZZ       :        -28.9410978           19.9196676           -9.0214302
 Traceless XX        :          7.0447375           -6.6398892            0.4048483
 Traceless YY        :          7.0447375           -6.6398892            0.4048483
 Traceless ZZ        :        -14.0894749           13.2797784           -0.8096965

 ------------------------------------------------------------------------------------
  ==> Computing MBIS Charges <==

  Electron Count from Grid (Expected Number): 14.00000 (14.00000)
  Difference:  0.00000

  MBIS Charges: (a.u.)
   Center  Symbol  Z      Pop.       Charge
      1       O    8    8.207537   -0.207537
      2       C    6    5.792463    0.207537

  MBIS Dipoles: [e a0]
   Center  Symbol  Z        X           Y           Z
      1       O    8    0.000000    0.000000   -0.081659
      2       C    6   -0.000000    0.000000   -0.259853

  MBIS Quadrupoles: [e a0^2]
   Center  Symbol  Z      XX        XY        XZ        YY        YZ        ZZ
      1       O    8   -3.8440    0.0000    0.0000   -3.8440    0.0000   -3.9721
      2       C    6   -3.9629    0.0000    0.0000   -3.9629    0.0000   -4.6744

  MBIS Octupoles: [e a0^3]
   Center  Symbol  Z      XXX       XXY       XXZ       XYY       XYZ       XZZ       YYY       YYZ       YZZ       ZZZ
      1       O    8   -0.0000   -0.0000   -0.0371   -0.0000    0.0000   -0.0000   -0.0000   -0.0371    0.0000   -0.2005
      2       C    6    0.0000   -0.0000   -0.1421    0.0000    0.0000    0.0000    0.0000   -0.1421    0.0000   -0.5405

  MBIS Radial Moments:
   Center  Symbol  Z      [a0^2]      [a0^3]      [a0^4]
      1       O    8   11.660104   21.803670   48.828216
      2       C    6   12.600182   30.227540   85.952153

  MBIS Valence Widths: [a0]
   Center  Symbol  Z     Width
      1       O    8    0.386356
      2       C    6    0.509924

*** tstop() called on Mac.lan at Sun Aug 10 17:17:49 2025
Module time:
	user time   =       4.29 seconds =       0.07 minutes
	system time =       2.87 seconds =       0.05 minutes
	total time  =          0 seconds =       0.00 minutes
Total time:
	user time   =      21.38 seconds =       0.36 minutes
	system time =       5.89 seconds =       0.10 minutes
	total time  =          2 seconds =       0.03 minutes

    Psi4 stopped on: Sunday, 10 August 2025 05:17PM
    Psi4 wall time for execution: 0:00:02.75

*** Psi4 exiting successfully. Buy a developer a beer!
