                               Psi4 1.9.1 release

  ==> Input File <==

--------------------------------------------------------------------------
molecule {
0 2
O           0.000000           0.000000           0.000000
H           0.000000           0.000000           0.871178
}

set {
basis              cc-pvtz
reference          uks
maxiter            500
DAMPING_PERCENTAGE 1
E_CONVERGENCE      1.0E-8
D_CONVERGENCE      1.0E-8
DIIS_MAX_VECS      400
MBIS_MAXITER       8000
guess              read
}

E, wfn = energy('b3lyp', restart_file='last_wfn', return_wfn=True)
properties('b3lyp','MBIS_CHARGES', wfn=wfn)
wfn.to_file('last_wfn')
--------------------------------------------------------------------------

    Molecular point group: c2v
  Charge       = 0
  Multiplicity = 2
  Basis Set: CC-PVTZ
    Blend: CC-PVTZ
  Basis Set: (CC-PVTZ AUX)
    Blend: CC-PVTZ-JKFIT
  @DF-UKS Final Energy:   -75.75212090145183
    Total Energy =                        -75.7521209014518320
 Dipole X            :          0.0000000            0.0000000            0.0000000
 Dipole Y            :          0.0000000            0.0000000            0.0000000
 Dipole Z            :         -0.1236482            0.7680452            0.6443970
 Magnitude           :                                                    0.6443970
    Molecular point group: c2v

    Geometry (in Angstrom), charge = 0, multiplicity = 2:

       Center              X                  Y                   Z               Mass
    ------------   -----------------  -----------------  -----------------  -----------------
         O            0.000000000000     0.000000000000    -0.051638442622    15.994914619570
         H            0.000000000000     0.000000000000     0.819539557378     1.007825032230

  Charge       = 0
  Multiplicity = 2
  Basis Set: CC-PVTZ
    Blend: CC-PVTZ
  Basis Set: (CC-PVTZ AUX)
    Blend: CC-PVTZ-JKFIT

    Orbital Energies [Eh]
    ---------------------

    Alpha Occupied:

       1A1   -19.188850     2A1    -1.050576     3A1    -0.492758
       1B1    -0.422191     1B2    -0.349397

    Alpha Virtual:

       4A1     0.045323     5A1     0.427677     6A1     0.506376
       2B1     0.529234     2B2     0.564936     3B1     0.702454
       3B2     0.719609     7A1     0.839338     8A1     1.377651
       1A2     1.415619     9A1     1.417577     4B1     1.771110
       4B2     1.809547    10A1     1.831514    11A1     2.508532
       2A2     3.222485    12A1     3.222653     5B1     3.360494
       5B2     3.396378     6B1     3.584003     6B2     3.620639
      13A1     3.781943     7B1     4.138004     7B2     4.170031
      14A1     4.475077    15A1     4.835736     8B1     5.063891
       8B2     5.064156     3A2     5.470238    16A1     5.470932
       4A2     6.133412    17A1     6.133503     9B1     6.316601
       9B2     6.374459    18A1     6.642544    10B1     6.906773
      10B2     6.950566    19A1     7.167278    20A1    11.130496

    Beta Occupied:

       1A1   -19.163764     2A1    -0.982669     3A1    -0.465038
       1B2    -0.323939

    Beta Virtual:

       1B1    -0.175284     4A1     0.050921     5A1     0.435600
       6A1     0.513790     2B2     0.575503     2B1     0.602121
       3B2     0.719360     3B1     0.719900     7A1     0.865162
       8A1     1.394202     1A2     1.467921     9A1     1.474085
       4B2     1.815519     4B1     1.820458    10A1     1.847467
      11A1     2.517349     2A2     3.232138    12A1     3.232986
       5B2     3.401603     5B1     3.412923     6B2     3.629709
       6B1     3.647010    13A1     3.787197     7B2     4.174445
       7B1     4.176971    14A1     4.505650    15A1     4.864433
       8B2     5.134074     8B1     5.137046     3A2     5.515044
      16A1     5.520025     4A2     6.224742    17A1     6.239057
       9B2     6.386925     9B1     6.405126    18A1     6.666267
      10B2     6.957421    10B1     6.962441    19A1     7.191006
      20A1    11.163275

    Final Occupation by Irrep:
             A1    A2    B1    B2
    DOCC [     3,    0,    0,    1 ]
    SOCC [     0,    0,    1,    0 ]
    NA   [     3,    0,    1,    1 ]
    NB   [     3,    0,    0,    1 ]

  @DF-UKS Final Energy:   -75.75212090171308

   => Energetics <=

    Nuclear Repulsion Energy =              4.8594175763850789
    One-Electron Energy =                -113.5858169434132776
    Two-Electron Energy =                  40.2082725338861877
    DFT Exchange-Correlation Energy =      -7.2339940685710751
    Empirical Dispersion Energy =           0.0000000000000000
    VV10 Nonlocal Energy =                  0.0000000000000000
    Total Energy =                        -75.7521209017130843

  UHF NO Occupations:
  HONO-2 :    2 A1 1.9998320
  HONO-1 :    3 A1 1.9993439
  HONO-0 :    1 B1 1.0000000
  LUNO+0 :    4 A1 0.0006561
  LUNO+1 :    5 A1 0.0001680
  LUNO+2 :    2 B2 0.0001495
  LUNO+3 :    6 A1 0.0000006

Computation Completed

Properties will be evaluated at   0.000000,   0.000000,   0.000000 [a0]

Properties computed using the B3LYP density matrix

 Multipole Moments:

 ------------------------------------------------------------------------------------
     Multipole            Electronic (a.u.)      Nuclear  (a.u.)        Total (a.u.)
 ------------------------------------------------------------------------------------

 L = 1.  Multiply by 2.5417464519 to convert [e a0] to [Debye]
 Dipole X            :          0.0000000            0.0000000            0.0000000
 Dipole Y            :          0.0000000            0.0000000            0.0000000
 Dipole Z            :         -0.1236482            0.7680452            0.6443970
 Magnitude           :                                                    0.6443970

 L = 2.  Multiply by 1.3450342976 to convert [e a0^2] to [Debye ang]
 Quadrupole XX       :         -3.9316317            0.0000000           -3.9316317
 Quadrupole XY       :          0.0000000            0.0000000            0.0000000
 Quadrupole XZ       :          0.0000000            0.0000000            0.0000000
 Quadrupole YY       :         -4.8210566            0.0000000           -4.8210566
 Quadrupole YZ       :          0.0000000            0.0000000            0.0000000
 Quadrupole ZZ       :         -5.8793175            2.4746669           -3.4046506
 Traceless XX        :          0.9457036           -0.8248890            0.1208146
 Traceless YY        :          0.0562786           -0.8248890           -0.7686103
 Traceless ZZ        :         -1.0019822            1.6497779            0.6477957

 ------------------------------------------------------------------------------------
  ==> Computing MBIS Charges <==

  Electron Count from Grid (Expected Number):  9.00000 ( 9.00000)
  Difference: -0.00000

  MBIS Charges: (a.u.)
   Center  Symbol  Z      Pop.       Charge
      1       O    8    8.401657   -0.401657
      2       H    1    0.598342    0.401658

  MBIS Dipoles: [e a0]
   Center  Symbol  Z        X           Y           Z
      1       O    8   -0.000000    0.000000   -0.042145
      2       H    1    0.000000    0.000000    0.025298

  MBIS Quadrupoles: [e a0^2]
   Center  Symbol  Z      XX        XY        XZ        YY        YZ        ZZ
      1       O    8   -3.6897    0.0000    0.0000   -4.5468    0.0000   -4.1958
      2       H    1   -0.2419   -0.0000    0.0000   -0.2743   -0.0000   -0.2550

  MBIS Octupoles: [e a0^3]
   Center  Symbol  Z      XXX       XXY       XXZ       XYY       XYZ       XZZ       YYY       YYZ       YZZ       ZZZ
      1       O    8   -0.0000   -0.0000   -0.0066   -0.0000   -0.0000    0.0000   -0.0000   -0.0370    0.0000   -0.2494
      2       H    1    0.0000   -0.0000   -0.0034   -0.0000   -0.0000    0.0000    0.0000    0.0057   -0.0000    0.0082

  MBIS Radial Moments:
   Center  Symbol  Z      [a0^2]      [a0^3]      [a0^4]
      1       O    8   12.432301   23.799061   54.451616
      2       H    1    0.771166    1.260678    2.465708

  MBIS Valence Widths: [a0]
   Center  Symbol  Z     Width
      1       O    8    0.392754
      2       H    1    0.328411

*** tstop() called on Mac.lan at Sun Aug 10 17:10:34 2025
Module time:
	user time   =       2.95 seconds =       0.05 minutes
	system time =       2.87 seconds =       0.05 minutes
	total time  =          1 seconds =       0.02 minutes
Total time:
	user time   =      12.45 seconds =       0.21 minutes
	system time =       5.32 seconds =       0.09 minutes
	total time  =          2 seconds =       0.03 minutes

    Psi4 stopped on: Sunday, 10 August 2025 05:10PM
    Psi4 wall time for execution: 0:00:01.74

*** Psi4 exiting successfully. Buy a developer a beer!
