                               Psi4 1.9.1 release

  ==> Input File <==

--------------------------------------------------------------------------
molecule {
0 1
H           0.000000           0.000000           0.000000
H           0.000000           0.000000           0.855053
}

set {
basis              cc-pvtz
reference          uks
maxiter            500
DAMPING_PERCENTAGE 1
E_CONVERGENCE      1.0E-8
D_CONVERGENCE      1.0E-8
DIIS_MAX_VECS      400
MBIS_MAXITER       8000
guess              read
}

E, wfn = energy('b3lyp', restart_file='last_wfn', return_wfn=True)
properties('b3lyp','MBIS_CHARGES', wfn=wfn)
wfn.to_file('last_wfn')
--------------------------------------------------------------------------

    Molecular point group: d2h
  Charge       = 0
  Multiplicity = 1
  Basis Set: CC-PVTZ
    Blend: CC-PVTZ
  Basis Set: (CC-PVTZ AUX)
    Blend: CC-PVTZ-JKFIT
  @DF-UKS Final Energy:    -1.17333125799173
    Total Energy =                         -1.1733312579917261
 Dipole X            :          0.0000000            0.0000000            0.0000000
 Dipole Y            :          0.0000000            0.0000000            0.0000000
 Dipole Z            :          0.0000000            0.0000000            0.0000000
 Magnitude           :                                                    0.0000000
    Molecular point group: d2h

    Geometry (in Angstrom), charge = 0, multiplicity = 1:

       Center              X                  Y                   Z               Mass
    ------------   -----------------  -----------------  -----------------  -----------------
         H            0.000000000000     0.000000000000    -0.427526500000     1.007825032230
         H            0.000000000000     0.000000000000     0.427526500000     1.007825032230

  Charge       = 0
  Multiplicity = 1
  Basis Set: CC-PVTZ
    Blend: CC-PVTZ
  Basis Set: (CC-PVTZ AUX)
    Blend: CC-PVTZ-JKFIT

    Orbital Energies [Eh]
    ---------------------

    Alpha Occupied:

       1Ag    -0.412607

    Alpha Virtual:

       1B1u    0.035087     2Ag     0.203502     2B1u    0.428653
       1B2u    0.503095     1B3u    0.503095     3Ag     0.874036
       1B2g    0.913070     1B3g    0.913070     3B1u    1.332270
       4B1u    2.107457     4Ag     2.146839     1B1g    2.889061
       5Ag     2.889061     2B3u    3.018893     2B2u    3.018893
       6Ag     3.281600     2B2g    3.665478     2B3g    3.665478
       1Au     3.679226     5B1u    3.679226     3B3u    3.712820
       3B2u    3.712820     6B1u    4.027331     3B2g    5.005812
       3B3g    5.005812     7Ag     5.044914     7B1u    6.137788

    Beta Occupied:

       1Ag    -0.412607

    Beta Virtual:

       1B1u    0.035087     2Ag     0.203502     2B1u    0.428653
       1B2u    0.503095     1B3u    0.503095     3Ag     0.874036
       1B2g    0.913070     1B3g    0.913070     3B1u    1.332270
       4B1u    2.107457     4Ag     2.146839     1B1g    2.889061
       5Ag     2.889061     2B3u    3.018893     2B2u    3.018893
       6Ag     3.281600     2B2g    3.665478     2B3g    3.665478
       1Au     3.679226     5B1u    3.679226     3B3u    3.712820
       3B2u    3.712820     6B1u    4.027331     3B2g    5.005812
       3B3g    5.005812     7Ag     5.044914     7B1u    6.137788

    Final Occupation by Irrep:
             Ag   B1g   B2g   B3g    Au   B1u   B2u   B3u
    DOCC [     1,    0,    0,    0,    0,    0,    0,    0 ]
    SOCC [     0,    0,    0,    0,    0,    0,    0,    0 ]
    NA   [     1,    0,    0,    0,    0,    0,    0,    0 ]
    NB   [     1,    0,    0,    0,    0,    0,    0,    0 ]

  @DF-UKS Final Energy:    -1.17333125786813

   => Energetics <=

    Nuclear Repulsion Energy =              0.6188823507665610
    One-Electron Energy =                  -2.3636530284596375
    Two-Electron Energy =                   1.1176250332709041
    DFT Exchange-Correlation Energy =      -0.5461856134459601
    Empirical Dispersion Energy =           0.0000000000000000
    VV10 Nonlocal Energy =                  0.0000000000000000
    Total Energy =                         -1.1733312578681327

  UHF NO Occupations:
  HONO-0 :    1 Ag 2.0000000
  LUNO+0 :    2 Ag 0.0000000
  LUNO+1 :    3 Ag 0.0000000
  LUNO+2 :    4 Ag 0.0000000
  LUNO+3 :    3B3u 0.0000000

Computation Completed

Properties will be evaluated at   0.000000,   0.000000,   0.000000 [a0]

Properties computed using the B3LYP density matrix

 Multipole Moments:

 ------------------------------------------------------------------------------------
     Multipole            Electronic (a.u.)      Nuclear  (a.u.)        Total (a.u.)
 ------------------------------------------------------------------------------------

 L = 1.  Multiply by 2.5417464519 to convert [e a0] to [Debye]
 Dipole X            :          0.0000000            0.0000000            0.0000000
 Dipole Y            :          0.0000000            0.0000000            0.0000000
 Dipole Z            :          0.0000000            0.0000000            0.0000000
 Magnitude           :                                                    0.0000000

 L = 2.  Multiply by 1.3450342976 to convert [e a0^2] to [Debye ang]
 Quadrupole XX       :         -1.6819607            0.0000000           -1.6819607
 Quadrupole XY       :          0.0000000            0.0000000            0.0000000
 Quadrupole XZ       :          0.0000000            0.0000000            0.0000000
 Quadrupole YY       :         -1.6819607            0.0000000           -1.6819607
 Quadrupole YZ       :          0.0000000            0.0000000            0.0000000
 Quadrupole ZZ       :         -2.4545239            1.3054307           -1.1490933
 Traceless XX        :          0.2575211           -0.4351436           -0.1776225
 Traceless YY        :          0.2575211           -0.4351436           -0.1776225
 Traceless ZZ        :         -0.5150422            0.8702871            0.3552449

 ------------------------------------------------------------------------------------
  ==> Computing MBIS Charges <==

  Electron Count from Grid (Expected Number):  2.00000 ( 2.00000)
  Difference:  0.00000

  MBIS Charges: (a.u.)
   Center  Symbol  Z      Pop.       Charge
      1       H    1    1.000000   -0.000000
      2       H    1    1.000000   -0.000000

  MBIS Dipoles: [e a0]
   Center  Symbol  Z        X           Y           Z
      1       H    1   -0.000000   -0.000000   -0.106624
      2       H    1   -0.000000   -0.000000    0.106624

  MBIS Quadrupoles: [e a0^2]
   Center  Symbol  Z      XX        XY        XZ        YY        YZ        ZZ
      1       H    1   -0.8410    0.0000    0.0000   -0.8410    0.0000   -0.7468
      2       H    1   -0.8410    0.0000   -0.0000   -0.8410   -0.0000   -0.7468

  MBIS Octupoles: [e a0^3]
   Center  Symbol  Z      XXX       XXY       XXZ       XYY       XYZ       XZZ       YYY       YYZ       YZZ       ZZZ
      1       H    1    0.0000   -0.0000   -0.0707   -0.0000   -0.0000   -0.0000   -0.0000   -0.0707   -0.0000   -0.1092
      2       H    1   -0.0000   -0.0000    0.0707   -0.0000    0.0000   -0.0000   -0.0000    0.0707   -0.0000    0.1092

  MBIS Radial Moments:
   Center  Symbol  Z      [a0^2]      [a0^3]      [a0^4]
      1       H    1    2.428792    5.529752   15.235524
      2       H    1    2.428792    5.529752   15.235524

  MBIS Valence Widths: [a0]
   Center  Symbol  Z     Width
      1       H    1    0.448830
      2       H    1    0.448830

*** tstop() called on Mac.lan at Sun Aug 10 16:59:43 2025
Module time:
	user time   =       0.48 seconds =       0.01 minutes
	system time =       1.48 seconds =       0.02 minutes
	total time  =          0 seconds =       0.00 minutes
Total time:
	user time   =       1.94 seconds =       0.03 minutes
	system time =       3.13 seconds =       0.05 minutes
	total time  =          1 seconds =       0.02 minutes

    Psi4 stopped on: Sunday, 10 August 2025 04:59PM
    Psi4 wall time for execution: 0:00:00.77

*** Psi4 exiting successfully. Buy a developer a beer!
