                               Psi4 1.9.1 release

  ==> Input File <==

--------------------------------------------------------------------------
molecule {
0 2
N           0.000000           0.000000           0.000000
C           0.000000           0.000000           1.317029
}

set {
basis              cc-pvtz
reference          uks
maxiter            500
DAMPING_PERCENTAGE 1
E_CONVERGENCE      1.0E-8
D_CONVERGENCE      1.0E-8
DIIS_MAX_VECS      400
MBIS_MAXITER       8000
guess              read
}

E, wfn = energy('b3lyp', restart_file='last_wfn', return_wfn=True)
properties('b3lyp','MBIS_CHARGES', wfn=wfn)
wfn.to_file('last_wfn')
--------------------------------------------------------------------------

    Molecular point group: c2v
  Charge       = 0
  Multiplicity = 2
  Basis Set: CC-PVTZ
    Blend: CC-PVTZ
  Basis Set: (CC-PVTZ AUX)
    Blend: CC-PVTZ-JKFIT
  @DF-UKS Final Energy:   -92.71131483978741
    Total Energy =                        -92.7113148397874056
 Dipole X            :          0.0000000            0.0000000            0.0000000
 Dipole Y            :          0.0000000            0.0000000            0.0000000
 Dipole Z            :          0.4344565            0.0017653            0.4362218
 Magnitude           :                                                    0.4362218
    Molecular point group: c2v

    Geometry (in Angstrom), charge = 0, multiplicity = 2:

       Center              X                  Y                   Z               Mass
    ------------   -----------------  -----------------  -----------------  -----------------
         N            0.000000000000     0.000000000000    -0.607787679153    14.003074004430
         C            0.000000000000     0.000000000000     0.709241320847    12.000000000000

  Charge       = 0
  Multiplicity = 2
  Basis Set: CC-PVTZ
    Blend: CC-PVTZ
  Basis Set: (CC-PVTZ AUX)
    Blend: CC-PVTZ-JKFIT

    Orbital Energies [Eh]
    ---------------------

    Alpha Occupied:

       1A1   -14.425722     2A1   -10.334732     3A1    -0.914211
       4A1    -0.534258     5A1    -0.412405     1B2    -0.367155
       1B1    -0.367155

    Alpha Virtual:

       2B2    -0.068014     2B1    -0.068014     6A1     0.159723
       7A1     0.280897     3B2     0.287148     3B1     0.287148
       8A1     0.410249     9A1     0.445763     4B2     0.505586
       4B1     0.505586     1A2     0.623098    10A1     0.623098
       5B2     0.767481     5B1     0.767481    11A1     0.868976
       2A2     1.118961    12A1     1.118961    13A1     1.122918
       6B2     1.442145     6B1     1.442145    14A1     1.668407
       7B1     1.966882     7B2     1.966882    15A1     2.132441
       8B1     2.624028     8B2     2.624028     3A2     2.648794
      16A1     2.648794     9B2     2.681729     9B1     2.681729
      17A1     2.822733    10B2     2.891477    10B1     2.891477
       4A2     2.904054    18A1     2.904056    19A1     2.971805
      11B2     3.298334    11B1     3.298334    20A1     3.501082
      12B2     3.887298    12B1     3.887298     5A2     4.199067
      21A1     4.199067    22A1     4.478884     6A2     4.478889
      13B2     4.650375    13B1     4.650375    23A1     4.671508
      24A1     5.149095    14B2     5.161822    14B1     5.161822
      25A1     5.385645    26A1     9.923970

    Beta Occupied:

       1A1   -14.419337     2A1   -10.321122     3A1    -0.888673
       4A1    -0.466353     1B2    -0.359568     1B1    -0.359568

    Beta Virtual:

       5A1    -0.255584     2B2    -0.048776     2B1    -0.048776
       6A1     0.168501     3B2     0.295083     3B1     0.295083
       7A1     0.315981     8A1     0.426821     9A1     0.493811
       4B2     0.506644     4B1     0.506644     1A2     0.631531
      10A1     0.631531     5B2     0.796337     5B1     0.796337
      11A1     0.881909     2A2     1.120215    12A1     1.120215
      13A1     1.157843     6B2     1.463019     6B1     1.463019
      14A1     1.696149     7B1     1.979756     7B2     1.979756
      15A1     2.181833     8B1     2.637209     8B2     2.637209
       3A2     2.669781    16A1     2.669781     9B2     2.703178
       9B1     2.703178    17A1     2.868618    10B2     2.929430
      10B1     2.929430     4A2     2.931633    18A1     2.931635
      19A1     3.036105    11B2     3.337605    11B1     3.337605
      20A1     3.544480    12B2     3.882114    12B1     3.882114
       5A2     4.207156    21A1     4.207156    22A1     4.480576
       6A2     4.480581    13B2     4.680802    13B1     4.680802
      23A1     4.714053    14B2     5.190995    14B1     5.190995
      24A1     5.194093    25A1     5.398524    26A1     9.942573

    Final Occupation by Irrep:
             A1    A2    B1    B2
    DOCC [     4,    0,    1,    1 ]
    SOCC [     1,    0,    0,    0 ]
    NA   [     5,    0,    1,    1 ]
    NB   [     4,    0,    1,    1 ]

  @DF-UKS Final Energy:   -92.71131483978544

   => Energetics <=

    Nuclear Repulsion Energy =             16.8754392258181092
    One-Electron Energy =                -157.9967958531811973
    Two-Electron Energy =                  58.1341727053849624
    DFT Exchange-Correlation Energy =      -9.7241309178072974
    Empirical Dispersion Energy =           0.0000000000000000
    VV10 Nonlocal Energy =                  0.0000000000000000
    Total Energy =                        -92.7113148397854303

  UHF NO Occupations:
  HONO-2 :    1 B2 1.9986311
  HONO-1 :    4 A1 1.9980583
  HONO-0 :    5 A1 1.0000000
  LUNO+0 :    6 A1 0.0019417
  LUNO+1 :    2 B2 0.0013689
  LUNO+2 :    2 B1 0.0013689
  LUNO+3 :    7 A1 0.0001533

Computation Completed

Properties will be evaluated at   0.000000,   0.000000,   0.000000 [a0]

Properties computed using the B3LYP density matrix

 Multipole Moments:

 ------------------------------------------------------------------------------------
     Multipole            Electronic (a.u.)      Nuclear  (a.u.)        Total (a.u.)
 ------------------------------------------------------------------------------------

 L = 1.  Multiply by 2.5417464519 to convert [e a0] to [Debye]
 Dipole X            :          0.0000000            0.0000000            0.0000000
 Dipole Y            :          0.0000000            0.0000000            0.0000000
 Dipole Z            :          0.4344565            0.0017653            0.4362219
 Magnitude           :                                                    0.4362219

 L = 2.  Multiply by 1.3450342976 to convert [e a0^2] to [Debye ang]
 Quadrupole XX       :         -8.5074629            0.0000000           -8.5074629
 Quadrupole XY       :          0.0000000            0.0000000            0.0000000
 Quadrupole XZ       :          0.0000000            0.0000000            0.0000000
 Quadrupole YY       :         -8.5074629            0.0000000           -8.5074629
 Quadrupole YZ       :          0.0000000            0.0000000            0.0000000
 Quadrupole ZZ       :        -27.6715883           20.0121778           -7.6594105
 Traceless XX        :          6.3880418           -6.6707259           -0.2826841
 Traceless YY        :          6.3880418           -6.6707259           -0.2826841
 Traceless ZZ        :        -12.7760836           13.3414519            0.5653683

 ------------------------------------------------------------------------------------
  ==> Computing MBIS Charges <==

  Electron Count from Grid (Expected Number): 13.00000 (13.00000)
  Difference:  0.00000

  MBIS Charges: (a.u.)
   Center  Symbol  Z      Pop.       Charge
      1       N    7    7.202259   -0.202259
      2       C    6    5.797742    0.202258

  MBIS Dipoles: [e a0]
   Center  Symbol  Z        X           Y           Z
      1       N    7    0.000000    0.000000   -0.223423
      2       C    6   -0.000000    0.000000    0.156259

  MBIS Quadrupoles: [e a0^2]
   Center  Symbol  Z      XX        XY        XZ        YY        YZ        ZZ
      1       N    7   -4.3770    0.0000   -0.0000   -4.3770    0.0000   -4.4567
      2       C    6   -4.1304    0.0000   -0.0000   -4.1304    0.0000   -4.2313

  MBIS Octupoles: [e a0^3]
   Center  Symbol  Z      XXX       XXY       XXZ       XYY       XYZ       XZZ       YYY       YYZ       YZZ       ZZZ
      1       N    7    0.0000    0.0000   -0.3213   -0.0000    0.0000   -0.0000   -0.0000   -0.3213    0.0000   -0.7578
      2       C    6   -0.0000   -0.0000    0.2698   -0.0000   -0.0000   -0.0000    0.0000    0.2698    0.0000    0.5380

  MBIS Radial Moments:
   Center  Symbol  Z      [a0^2]      [a0^3]      [a0^4]
      1       N    7   13.210804   28.380068   72.689235
      2       C    6   12.492127   29.913832   85.221105

  MBIS Valence Widths: [a0]
   Center  Symbol  Z     Width
      1       N    7    0.448820
      2       C    6    0.506942

*** tstop() called on Mac.lan at Sun Aug 10 17:14:03 2025
Module time:
	user time   =       3.77 seconds =       0.06 minutes
	system time =       2.28 seconds =       0.04 minutes
	total time  =          0 seconds =       0.00 minutes
Total time:
	user time   =      21.89 seconds =       0.36 minutes
	system time =       4.50 seconds =       0.07 minutes
	total time  =          2 seconds =       0.03 minutes

    Psi4 stopped on: Sunday, 10 August 2025 05:14PM
    Psi4 wall time for execution: 0:00:02.55

*** Psi4 exiting successfully. Buy a developer a beer!
