                               Psi4 1.9.1 release

  ==> Input File <==

--------------------------------------------------------------------------
molecule {
0 3
C           0.000000           0.000000           0.000000
C           0.000000           0.000000           1.450587
}

set {
basis              cc-pvtz
reference          uks
maxiter            500
DAMPING_PERCENTAGE 1
E_CONVERGENCE      1.0E-8
D_CONVERGENCE      1.0E-8
DIIS_MAX_VECS      400
MBIS_MAXITER       8000
guess              read
}

E, wfn = energy('b3lyp', restart_file='last_wfn', return_wfn=True)
properties('b3lyp','MBIS_CHARGES', wfn=wfn)
wfn.to_file('last_wfn')
--------------------------------------------------------------------------

    Molecular point group: d2h
  Charge       = 0
  Multiplicity = 3
  Basis Set: CC-PVTZ
    Blend: CC-PVTZ
  Basis Set: (CC-PVTZ AUX)
    Blend: CC-PVTZ-JKFIT
  @DF-UKS Final Energy:   -75.92489698382542
    Total Energy =                        -75.9248969838254197
 Dipole X            :          0.0000000            0.0000000            0.0000000
 Dipole Y            :          0.0000000            0.0000000            0.0000000
 Dipole Z            :          0.0000000           -0.0000000           -0.0000000
 Magnitude           :                                                    0.0000000
    Molecular point group: d2h

    Geometry (in Angstrom), charge = 0, multiplicity = 3:

       Center              X                  Y                   Z               Mass
    ------------   -----------------  -----------------  -----------------  -----------------
         C            0.000000000000     0.000000000000    -0.725293500000    12.000000000000
         C            0.000000000000     0.000000000000     0.725293500000    12.000000000000

  Charge       = 0
  Multiplicity = 3
  Basis Set: CC-PVTZ
    Blend: CC-PVTZ
  Basis Set: (CC-PVTZ AUX)
    Blend: CC-PVTZ-JKFIT

    Orbital Energies [Eh]
    ---------------------

    Alpha Occupied:

       1Ag   -10.315350     1B1u  -10.314849     2Ag    -0.784407
       2B1u   -0.477553     3Ag    -0.356662     1B3u   -0.347876
       1B2u   -0.315446

    Alpha Virtual:

       1B2g   -0.087379     1B3g   -0.059857     3B1u    0.161925
       2B3u    0.264677     4Ag     0.275805     2B2u    0.279687
       5Ag     0.322439     2B2g    0.347314     4B1u    0.354732
       2B3g    0.360397     1B1g    0.551152     6Ag     0.551783
       5B1u    0.601753     3B3u    0.659407     3B2u    0.682963
       1Au     0.810526     6B1u    0.810849     3B2g    1.092108
       3B3g    1.108366     7Ag     1.122087     7B1u    1.155901
       4B3u    1.876736     4B2u    1.900946     8Ag     1.971033
       4B2g    2.053388     4B3g    2.080192     2B1g    2.366105
       9Ag     2.366572     5B3u    2.372239     5B2u    2.399629
       8B1u    2.424920     6B3u    2.524256     6B2u    2.524390
      10Ag     2.566646     5B2g    2.761016     5B3g    2.761116
       3B1g    2.878013    11Ag     2.878296     9B1u    2.957038
       2Au     2.957862    10B1u    2.984418     6B2g    3.023897
       6B3g    3.045025     7B3u    3.229969     3Au     3.237042
      11B1u    3.237923     7B2u    3.254592    12B1u    3.623661
      12Ag     3.766536    13Ag     4.009809     7B2g    4.096256
       7B3g    4.122176    13B1u    8.639186

    Beta Occupied:

       1Ag   -10.299582     1B1u  -10.299290     2Ag    -0.719268
       2B1u   -0.391106     1B2u   -0.298096

    Beta Virtual:

       3Ag    -0.206857     1B3u   -0.206397     1B3g   -0.038956
       1B2g   -0.010692     3B1u    0.178009     2B2u    0.285484
       2B3u    0.295594     4Ag     0.300333     5Ag     0.355169
       2B3g    0.366936     2B2g    0.376066     4B1u    0.422931
       1B1g    0.577775     6Ag     0.580198     5B1u    0.619421
       3B2u    0.710663     3B3u    0.717084     1Au     0.834262
       6B1u    0.836258     3B3g    1.130423     3B2g    1.133404
       7Ag     1.163555     7B1u    1.195867     4B2u    1.914283
       4B3u    1.927581     8Ag     2.020065     4B3g    2.091805
       4B2g    2.102411     2B1g    2.407592     9Ag     2.410018
       5B2u    2.429695     5B3u    2.441277     8B1u    2.471778
       6B2u    2.556985     6B3u    2.557834    10Ag     2.633704
       5B3g    2.793147     5B2g    2.794008     3B1g    2.920500
      11Ag     2.925093     2Au     2.996435     9B1u    3.000795
      10B1u    3.042937     6B3g    3.091331     6B2g    3.102989
       3Au     3.280118    11B1u    3.282665     7B2u    3.299170
       7B3u    3.308131    12B1u    3.683079    12Ag     3.809744
      13Ag     4.055533     7B3g    4.152764     7B2g    4.161053
      13B1u    8.668598

    Final Occupation by Irrep:
             Ag   B1g   B2g   B3g    Au   B1u   B2u   B3u
    DOCC [     2,    0,    0,    0,    0,    2,    1,    0 ]
    SOCC [     1,    0,    0,    0,    0,    0,    0,    1 ]
    NA   [     3,    0,    0,    0,    0,    2,    1,    1 ]
    NB   [     2,    0,    0,    0,    0,    2,    1,    0 ]

  @DF-UKS Final Energy:   -75.92489698378790

   => Energetics <=

    Nuclear Repulsion Energy =             13.1328762660357512
    One-Electron Energy =                -127.0730021447719338
    Two-Electron Energy =                  46.5033535738121486
    DFT Exchange-Correlation Energy =      -8.4881246788638762
    Empirical Dispersion Energy =           0.0000000000000000
    VV10 Nonlocal Energy =                  0.0000000000000000
    Total Energy =                        -75.9248969837879031

  UHF NO Occupations:
  HONO-2 :    2B1u 1.9982479
  HONO-1 :    3 Ag 1.0000000
  HONO-0 :    1B3u 1.0000000
  LUNO+0 :    3B1u 0.0017521
  LUNO+1 :    4 Ag 0.0003929
  LUNO+2 :    2B2u 0.0001680
  LUNO+3 :    4B1u 0.0000006

Computation Completed

Properties will be evaluated at   0.000000,   0.000000,   0.000000 [a0]

Properties computed using the B3LYP density matrix

 Multipole Moments:

 ------------------------------------------------------------------------------------
     Multipole            Electronic (a.u.)      Nuclear  (a.u.)        Total (a.u.)
 ------------------------------------------------------------------------------------

 L = 1.  Multiply by 2.5417464519 to convert [e a0] to [Debye]
 Dipole X            :          0.0000000            0.0000000            0.0000000
 Dipole Y            :          0.0000000            0.0000000            0.0000000
 Dipole Z            :          0.0000000           -0.0000000           -0.0000000
 Magnitude           :                                                    0.0000000

 L = 2.  Multiply by 1.3450342976 to convert [e a0^2] to [Debye ang]
 Quadrupole XX       :         -8.1501804            0.0000000           -8.1501804
 Quadrupole XY       :          0.0000000            0.0000000            0.0000000
 Quadrupole XZ       :          0.0000000            0.0000000            0.0000000
 Quadrupole YY       :         -9.6886309            0.0000000           -9.6886309
 Quadrupole YZ       :          0.0000000            0.0000000            0.0000000
 Quadrupole ZZ       :        -31.5216474           22.5427322           -8.9789152
 Traceless XX        :          8.3033058           -7.5142441            0.7890618
 Traceless YY        :          6.7648553           -7.5142441           -0.7493887
 Traceless ZZ        :        -15.0681612           15.0284881           -0.0396731

 ------------------------------------------------------------------------------------
  ==> Computing MBIS Charges <==

  Electron Count from Grid (Expected Number): 12.00000 (12.00000)
  Difference:  0.00000

  MBIS Charges: (a.u.)
   Center  Symbol  Z      Pop.       Charge
      1       C    6    6.000000   -0.000000
      2       C    6    6.000000   -0.000000

  MBIS Dipoles: [e a0]
   Center  Symbol  Z        X           Y           Z
      1       C    6   -0.000000   -0.000000   -0.095505
      2       C    6   -0.000000    0.000000    0.095505

  MBIS Quadrupoles: [e a0^2]
   Center  Symbol  Z      XX        XY        XZ        YY        YZ        ZZ
      1       C    6   -4.0751    0.0000   -0.0000   -4.8443   -0.0000   -4.7513
      2       C    6   -4.0751    0.0000    0.0000   -4.8443    0.0000   -4.7513

  MBIS Octupoles: [e a0^3]
   Center  Symbol  Z      XXX       XXY       XXZ       XYY       XYZ       XZZ       YYY       YYZ       YZZ       ZZZ
      1       C    6   -0.0000    0.0000   -0.0715   -0.0000    0.0000   -0.0000    0.0000   -0.3166    0.0000   -0.4749
      2       C    6   -0.0000    0.0000    0.0715   -0.0000   -0.0000   -0.0000    0.0000    0.3166    0.0000    0.4749

  MBIS Radial Moments:
   Center  Symbol  Z      [a0^2]      [a0^3]      [a0^4]
      1       C    6   13.670662   33.524532   97.986859
      2       C    6   13.670662   33.524532   97.986859

  MBIS Valence Widths: [a0]
   Center  Symbol  Z     Width
      1       C    6    0.517977
      2       C    6    0.517977

*** tstop() called on Mac.lan at Sun Aug 10 17:04:15 2025
Module time:
	user time   =       3.62 seconds =       0.06 minutes
	system time =       2.58 seconds =       0.04 minutes
	total time  =          0 seconds =       0.00 minutes
Total time:
	user time   =      16.17 seconds =       0.27 minutes
	system time =       4.77 seconds =       0.08 minutes
	total time  =          2 seconds =       0.03 minutes

    Psi4 stopped on: Sunday, 10 August 2025 05:04PM
    Psi4 wall time for execution: 0:00:02.03

*** Psi4 exiting successfully. Buy a developer a beer!
