                               Psi4 1.9.1 release

  ==> Input File <==

--------------------------------------------------------------------------
molecule {
0 2
O           0.000000           0.000000           0.000000
N           0.000000           0.000000           1.045389
}

set {
basis              cc-pvtz
reference          uks
maxiter            500
DAMPING_PERCENTAGE 1
E_CONVERGENCE      1.0E-8
D_CONVERGENCE      1.0E-8
DIIS_MAX_VECS      400
MBIS_MAXITER       8000
guess              read
}

E, wfn = energy('b3lyp', restart_file='last_wfn', return_wfn=True)
properties('b3lyp','MBIS_CHARGES', wfn=wfn)
wfn.to_file('last_wfn')
--------------------------------------------------------------------------

    Molecular point group: c2v
  Charge       = 0
  Multiplicity = 2
  Basis Set: CC-PVTZ
    Blend: CC-PVTZ
  Basis Set: (CC-PVTZ AUX)
    Blend: CC-PVTZ-JKFIT
  @DF-UKS Final Energy:  -129.91482747120060
    Total Energy =                       -129.9148274712005957
 Dipole X            :          0.0000000            0.0000000            0.0000000
 Dipole Y            :          0.0000000            0.0000000            0.0000000
 Dipole Z            :         -0.1426875           -0.0039638           -0.1466512
 Magnitude           :                                                    0.1466512
    Molecular point group: c2v

    Geometry (in Angstrom), charge = 0, multiplicity = 2:

       Center              X                  Y                   Z               Mass
    ------------   -----------------  -----------------  -----------------  -----------------
         O            0.000000000000     0.000000000000    -0.487988035261    15.994914619570
         N            0.000000000000     0.000000000000     0.557400964739    14.003074004430

  Charge       = 0
  Multiplicity = 2
  Basis Set: CC-PVTZ
    Blend: CC-PVTZ
  Basis Set: (CC-PVTZ AUX)
    Blend: CC-PVTZ-JKFIT

    Orbital Energies [Eh]
    ---------------------

    Alpha Occupied:

       1A1   -19.263538     2A1   -14.429491     3A1    -1.334585
       4A1    -0.675094     1B1    -0.584134     1B2    -0.559754
       5A1    -0.494854     2B1    -0.173626

    Alpha Virtual:

       2B2    -0.063392     6A1     0.243422     3B1     0.401608
       3B2     0.406331     7A1     0.440404     8A1     0.527929
       4B1     0.595010     4B2     0.604032     9A1     0.724585
       1A2     0.911534    10A1     0.913256    11A1     1.173367
       5B1     1.184444     5B2     1.186067     2A2     1.548759
      12A1     1.550081    13A1     1.749571     6B1     2.037257
       6B2     2.040214    14A1     2.270688     7B1     2.805640
       7B2     2.820026    15A1     3.102427     8B1     3.615541
       8B2     3.623867    16A1     3.724493     9B1     3.761303
       9B2     3.761799     3A2     3.792502    17A1     3.794363
      10B1     4.084446    10B2     4.085448     4A2     4.364664
      18A1     4.369557    19A1     4.475175    11B1     4.771811
      11B2     4.772904    12B1     5.066100    12B2     5.066231
      20A1     5.107132     5A2     5.748355    21A1     5.749600
       6A2     6.151469    22A1     6.153545    13B1     6.517482
      13B2     6.520452    23A1     6.579443    24A1     7.063662
      14B2     7.278228    14B1     7.279363    25A1     7.559736
      26A1    16.268285

    Beta Occupied:

       1A1   -19.252536     2A1   -14.414864     3A1    -1.315375
       4A1    -0.641608     1B2    -0.549999     1B1    -0.513013
       5A1    -0.467156

    Beta Virtual:

       2B2    -0.048552     2B1    -0.008217     6A1     0.247942
       3B2     0.411334     3B1     0.432874     7A1     0.452880
       8A1     0.536796     4B2     0.608765     4B1     0.627205
       9A1     0.745431     1A2     0.936190    10A1     0.936386
      11A1     1.182382     5B2     1.188965     5B1     1.217377
      12A1     1.574103     2A2     1.574105    13A1     1.763644
       6B2     2.043842     6B1     2.067233    14A1     2.284798
       7B2     2.831838     7B1     2.870489    15A1     3.117036
       8B2     3.631371     8B1     3.663267    16A1     3.741076
       9B2     3.802178     9B1     3.802253     3A2     3.813755
      17A1     3.814533    10B2     4.089877    10B1     4.122621
      18A1     4.421709     4A2     4.425324    19A1     4.497195
      11B2     4.777000    11B1     4.809386    12B2     5.092239
      12B1     5.092250    20A1     5.123022     5A2     5.770344
      21A1     5.770556    22A1     6.190039     6A2     6.190057
      13B2     6.524456    13B1     6.553940    23A1     6.590035
      24A1     7.080226    14B2     7.282457    14B1     7.313198
      25A1     7.577107    26A1    16.286397

    Final Occupation by Irrep:
             A1    A2    B1    B2
    DOCC [     5,    0,    1,    1 ]
    SOCC [     0,    0,    1,    0 ]
    NA   [     5,    0,    2,    1 ]
    NB   [     5,    0,    1,    1 ]

  @DF-UKS Final Energy:  -129.91482747145699

   => Energetics <=

    Nuclear Repulsion Energy =             28.3472695786162063
    One-Electron Energy =                -232.8591670288459170
    Two-Electron Energy =                  87.1167595143398756
    DFT Exchange-Correlation Energy =     -12.5196895355671600
    Empirical Dispersion Energy =           0.0000000000000000
    VV10 Nonlocal Energy =                  0.0000000000000000
    Total Energy =                       -129.9148274714569880

  UHF NO Occupations:
  HONO-2 :    5 A1 1.9995820
  HONO-1 :    1 B1 1.9993764
  HONO-0 :    2 B1 1.0000000
  LUNO+0 :    3 B1 0.0006236
  LUNO+1 :    6 A1 0.0004180
  LUNO+2 :    7 A1 0.0000962
  LUNO+3 :    2 B2 0.0000513

Computation Completed

Properties will be evaluated at   0.000000,   0.000000,   0.000000 [a0]

Properties computed using the B3LYP density matrix

 Multipole Moments:

 ------------------------------------------------------------------------------------
     Multipole            Electronic (a.u.)      Nuclear  (a.u.)        Total (a.u.)
 ------------------------------------------------------------------------------------

 L = 1.  Multiply by 2.5417464519 to convert [e a0] to [Debye]
 Dipole X            :          0.0000000            0.0000000            0.0000000
 Dipole Y            :          0.0000000            0.0000000            0.0000000
 Dipole Z            :         -0.1426875           -0.0039638           -0.1466512
 Magnitude           :                                                    0.1466512

 L = 2.  Multiply by 1.3450342976 to convert [e a0^2] to [Debye ang]
 Quadrupole XX       :         -7.7905625            0.0000000           -7.7905625
 Quadrupole XY       :          0.0000000            0.0000000            0.0000000
 Quadrupole XZ       :          0.0000000            0.0000000            0.0000000
 Quadrupole YY       :         -6.9235005            0.0000000           -6.9235005
 Quadrupole YZ       :          0.0000000            0.0000000            0.0000000
 Quadrupole ZZ       :        -23.0382117           14.5696925           -8.4685192
 Traceless XX        :          4.7935291           -4.8565642           -0.0630351
 Traceless YY        :          5.6605910           -4.8565642            0.8040269
 Traceless ZZ        :        -10.4541201            9.7131283           -0.7409918

 ------------------------------------------------------------------------------------
  ==> Computing MBIS Charges <==

  Electron Count from Grid (Expected Number): 15.00000 (15.00000)
  Difference:  0.00000

  MBIS Charges: (a.u.)
   Center  Symbol  Z      Pop.       Charge
      1       O    8    7.984935    0.015065
      2       N    7    7.015066   -0.015066

  MBIS Dipoles: [e a0]
   Center  Symbol  Z        X           Y           Z
      1       O    8    0.000000   -0.000000    0.077053
      2       N    7    0.000000    0.000000   -0.193942

  MBIS Quadrupoles: [e a0^2]
   Center  Symbol  Z      XX        XY        XZ        YY        YZ        ZZ
      1       O    8   -3.5764   -0.0000    0.0000   -3.3120    0.0000   -3.6803
      2       N    7   -4.2141    0.0000    0.0000   -3.6115   -0.0000   -4.2337

  MBIS Octupoles: [e a0^3]
   Center  Symbol  Z      XXX       XXY       XXZ       XYY       XYZ       XZZ       YYY       YYZ       YZZ       ZZZ
      1       O    8    0.0000   -0.0000    0.1596    0.0000    0.0000   -0.0000   -0.0000    0.0986    0.0000    0.0928
      2       N    7    0.0000   -0.0000   -0.4084    0.0000    0.0000    0.0000   -0.0000   -0.1129   -0.0000   -0.1399

  MBIS Radial Moments:
   Center  Symbol  Z      [a0^2]      [a0^3]      [a0^4]
      1       O    8   10.568678   19.191698   41.911968
      2       N    7   12.059317   25.300658   63.409048

  MBIS Valence Widths: [a0]
   Center  Symbol  Z     Width
      1       O    8    0.373158
      2       N    7    0.434705

*** tstop() called on Mac.lan at Sun Aug 10 17:19:47 2025
Module time:
	user time   =       3.81 seconds =       0.06 minutes
	system time =       2.41 seconds =       0.04 minutes
	total time  =          1 seconds =       0.02 minutes
Total time:
	user time   =      18.17 seconds =       0.30 minutes
	system time =       4.85 seconds =       0.08 minutes
	total time  =          2 seconds =       0.03 minutes

    Psi4 stopped on: Sunday, 10 August 2025 05:19PM
    Psi4 wall time for execution: 0:00:02.22

*** Psi4 exiting successfully. Buy a developer a beer!
