                               Psi4 1.9.1 release

  ==> Input File <==

--------------------------------------------------------------------------
molecule {
0 2
O           0.000000           0.000000           0.000000
H           0.000000           0.000000           0.745872
}

set {
basis              cc-pvtz
reference          uks
maxiter            500
DAMPING_PERCENTAGE 1
E_CONVERGENCE      1.0E-8
D_CONVERGENCE      1.0E-8
DIIS_MAX_VECS      400
MBIS_MAXITER       8000
guess              read
}

E, wfn = energy('b3lyp', restart_file='last_wfn', return_wfn=True)
properties('b3lyp','MBIS_CHARGES', wfn=wfn)
wfn.to_file('last_wfn')
--------------------------------------------------------------------------

    Molecular point group: c2v
  Charge       = 0
  Multiplicity = 2
  Basis Set: CC-PVTZ
    Blend: CC-PVTZ
  Basis Set: (CC-PVTZ AUX)
    Blend: CC-PVTZ-JKFIT
  @DF-UKS Final Energy:   -75.68209914871738
    Total Energy =                        -75.6820991487173842
 Dipole X            :          0.0000000            0.0000000            0.0000000
 Dipole Y            :          0.0000000            0.0000000            0.0000000
 Dipole Z            :         -0.0412026            0.6575733            0.6163707
 Magnitude           :                                                    0.6163707
    Molecular point group: c2v

    Geometry (in Angstrom), charge = 0, multiplicity = 2:

       Center              X                  Y                   Z               Mass
    ------------   -----------------  -----------------  -----------------  -----------------
         O            0.000000000000     0.000000000000    -0.044211020567    15.994914619570
         H            0.000000000000     0.000000000000     0.701660979433     1.007825032230

  Charge       = 0
  Multiplicity = 2
  Basis Set: CC-PVTZ
    Blend: CC-PVTZ
  Basis Set: (CC-PVTZ AUX)
    Blend: CC-PVTZ-JKFIT

    Orbital Energies [Eh]
    ---------------------

    Alpha Occupied:

       1A1   -19.178236     2A1    -1.104304     3A1    -0.511557
       1B1    -0.430482     1B2    -0.357483

    Alpha Virtual:

       4A1     0.058111     5A1     0.478012     2B1     0.523312
       6A1     0.535176     2B2     0.557500     3B1     0.728080
       3B2     0.748180     7A1     0.813704     8A1     1.410901
       1A2     1.411912     9A1     1.560682     4B1     1.804585
       4B2     1.842320    10A1     1.874307    11A1     2.627302
       2A2     3.291541    12A1     3.291679     5B1     3.375805
       5B2     3.404700     6B1     3.600040     6B2     3.652310
      13A1     3.891935     7B1     4.274909     7B2     4.305256
      14A1     4.525699     8B1     5.056544     8B2     5.056813
      15A1     5.430383     3A2     5.677428    16A1     5.678864
       4A2     6.115673    17A1     6.116720     9B1     6.214813
       9B2     6.268801    18A1     7.151892    19A1     7.456265
      10B1     7.592713    10B2     7.639587    20A1    12.757762

    Beta Occupied:

       1A1   -19.153320     2A1    -1.039140     3A1    -0.480829
       1B2    -0.331997

    Beta Virtual:

       1B1    -0.182964     4A1     0.062928     5A1     0.484825
       6A1     0.544285     2B2     0.567239     2B1     0.591088
       3B2     0.749523     3B1     0.752950     7A1     0.837055
       1A2     1.464540     8A1     1.470053     9A1     1.578390
       4B2     1.848034     4B1     1.852327    10A1     1.894687
      11A1     2.636350     2A2     3.306078    12A1     3.307149
       5B2     3.407331     5B1     3.414129     6B2     3.668621
       6B1     3.693835    13A1     3.901827     7B2     4.308057
       7B1     4.308754    14A1     4.557241     8B2     5.126866
       8B1     5.129805    15A1     5.467018     3A2     5.721211
      16A1     5.725964     4A2     6.207212    17A1     6.221681
       9B2     6.278682     9B1     6.289643    18A1     7.174843
      19A1     7.474381    10B2     7.648066    10B1     7.657169
      20A1    12.786981

    Final Occupation by Irrep:
             A1    A2    B1    B2
    DOCC [     3,    0,    0,    1 ]
    SOCC [     0,    0,    1,    0 ]
    NA   [     3,    0,    1,    1 ]
    NB   [     3,    0,    0,    1 ]

  @DF-UKS Final Energy:   -75.68209914890572

   => Energetics <=

    Nuclear Repulsion Energy =              5.6757964977368776
    One-Electron Energy =                -114.8846910666156873
    Two-Electron Energy =                  40.8264423324646302
    DFT Exchange-Correlation Energy =      -7.2996469124915446
    Empirical Dispersion Energy =           0.0000000000000000
    VV10 Nonlocal Energy =                  0.0000000000000000
    Total Energy =                        -75.6820991489057064

  UHF NO Occupations:
  HONO-2 :    1 B2 1.9998563
  HONO-1 :    3 A1 1.9993690
  HONO-0 :    1 B1 1.0000000
  LUNO+0 :    4 A1 0.0006310
  LUNO+1 :    2 B2 0.0001437
  LUNO+2 :    5 A1 0.0001102
  LUNO+3 :    6 A1 0.0000006

Computation Completed

Properties will be evaluated at   0.000000,   0.000000,   0.000000 [a0]

Properties computed using the B3LYP density matrix

 Multipole Moments:

 ------------------------------------------------------------------------------------
     Multipole            Electronic (a.u.)      Nuclear  (a.u.)        Total (a.u.)
 ------------------------------------------------------------------------------------

 L = 1.  Multiply by 2.5417464519 to convert [e a0] to [Debye]
 Dipole X            :          0.0000000            0.0000000            0.0000000
 Dipole Y            :          0.0000000            0.0000000            0.0000000
 Dipole Z            :         -0.0412026            0.6575733            0.6163707
 Magnitude           :                                                    0.6163707

 L = 2.  Multiply by 1.3450342976 to convert [e a0^2] to [Debye ang]
 Quadrupole XX       :         -3.8331185            0.0000000           -3.8331185
 Quadrupole XY       :          0.0000000            0.0000000            0.0000000
 Quadrupole XZ       :          0.0000000            0.0000000            0.0000000
 Quadrupole YY       :         -4.7130474            0.0000000           -4.7130474
 Quadrupole YZ       :          0.0000000            0.0000000            0.0000000
 Quadrupole ZZ       :         -5.3574162            1.8139761           -3.5434401
 Traceless XX        :          0.8014089           -0.6046587            0.1967502
 Traceless YY        :         -0.0785200           -0.6046587           -0.6831787
 Traceless ZZ        :         -0.7228889            1.2093174            0.4864285

 ------------------------------------------------------------------------------------
  ==> Computing MBIS Charges <==

  Electron Count from Grid (Expected Number):  9.00000 ( 9.00000)
  Difference: -0.00000

  MBIS Charges: (a.u.)
   Center  Symbol  Z      Pop.       Charge
      1       O    8    8.427993   -0.427993
      2       H    1    0.572007    0.427993

  MBIS Dipoles: [e a0]
   Center  Symbol  Z        X           Y           Z
      1       O    8   -0.000000   -0.000000   -0.007734
      2       H    1    0.000000    0.000000    0.020851

  MBIS Quadrupoles: [e a0^2]
   Center  Symbol  Z      XX        XY        XZ        YY        YZ        ZZ
      1       O    8   -3.6578    0.0000   -0.0000   -4.5140   -0.0000   -4.1628
      2       H    1   -0.1754    0.0000    0.0000   -0.1990    0.0000   -0.1867

  MBIS Octupoles: [e a0^3]
   Center  Symbol  Z      XXX       XXY       XXZ       XYY       XYZ       XZZ       YYY       YYZ       YZZ       ZZZ
      1       O    8   -0.0000   -0.0000    0.0592    0.0000    0.0000   -0.0000   -0.0000    0.0131   -0.0000   -0.1015
      2       H    1    0.0000    0.0000   -0.0003   -0.0000    0.0000   -0.0000    0.0000    0.0040   -0.0000    0.0037

  MBIS Radial Moments:
   Center  Symbol  Z      [a0^2]      [a0^3]      [a0^4]
      1       O    8   12.334568   23.491379   53.442425
      2       H    1    0.561107    0.800055    1.369633

  MBIS Valence Widths: [a0]
   Center  Symbol  Z     Width
      1       O    8    0.390061
      2       H    1    0.286914

*** tstop() called on Mac.lan at Sun Aug 10 17:10:48 2025
Module time:
	user time   =       2.96 seconds =       0.05 minutes
	system time =       2.41 seconds =       0.04 minutes
	total time  =          0 seconds =       0.00 minutes
Total time:
	user time   =      12.12 seconds =       0.20 minutes
	system time =       4.80 seconds =       0.08 minutes
	total time  =          1 seconds =       0.02 minutes

    Psi4 stopped on: Sunday, 10 August 2025 05:10PM
    Psi4 wall time for execution: 0:00:01.65

*** Psi4 exiting successfully. Buy a developer a beer!
