                               Psi4 1.9.1 release

  ==> Input File <==

--------------------------------------------------------------------------
molecule {
0 2
O           0.000000           0.000000           0.000000
N           0.000000           0.000000           1.276918
}

set {
basis              cc-pvtz
reference          uks
maxiter            500
DAMPING_PERCENTAGE 1
E_CONVERGENCE      1.0E-8
D_CONVERGENCE      1.0E-8
DIIS_MAX_VECS      400
MBIS_MAXITER       8000
guess              read
}

E, wfn = energy('b3lyp', restart_file='last_wfn', return_wfn=True)
properties('b3lyp','MBIS_CHARGES', wfn=wfn)
wfn.to_file('last_wfn')
--------------------------------------------------------------------------

    Molecular point group: c2v
  Charge       = 0
  Multiplicity = 2
  Basis Set: CC-PVTZ
    Blend: CC-PVTZ
  Basis Set: (CC-PVTZ AUX)
    Blend: CC-PVTZ-JKFIT
  @DF-UKS Final Energy:  -129.91560593810468
    Total Energy =                       -129.9156059381046759
 Dipole X            :          0.0000000            0.0000000            0.0000000
 Dipole Y            :          0.0000000            0.0000000            0.0000000
 Dipole Z            :          0.0910748           -0.0048416            0.0862332
 Magnitude           :                                                    0.0862332
    Molecular point group: c2v

    Geometry (in Angstrom), charge = 0, multiplicity = 2:

       Center              X                  Y                   Z               Mass
    ------------   -----------------  -----------------  -----------------  -----------------
         O            0.000000000000     0.000000000000    -0.596065872139    15.994914619570
         N            0.000000000000     0.000000000000     0.680852127861    14.003074004430

  Charge       = 0
  Multiplicity = 2
  Basis Set: CC-PVTZ
    Blend: CC-PVTZ
  Basis Set: (CC-PVTZ AUX)
    Blend: CC-PVTZ-JKFIT

    Orbital Energies [Eh]
    ---------------------

    Alpha Occupied:

       1A1   -19.273438     2A1   -14.488159     3A1    -1.163583
       4A1    -0.717067     1B1    -0.500867     5A1    -0.480404
       1B2    -0.470157     2B1    -0.264312

    Alpha Virtual:

       2B2    -0.153419     6A1     0.174530     7A1     0.413535
       3B1     0.416206     3B2     0.424269     8A1     0.463882
       9A1     0.556141     4B1     0.594607     4B2     0.600816
       1A2     0.931870    10A1     0.933738     5B2     1.059645
       5B1     1.059892    11A1     1.171718     2A2     1.488495
      12A1     1.489597    13A1     1.548312     6B1     1.926507
       6B2     1.927530    14A1     2.116955     7B1     2.777071
       7B2     2.795228    15A1     3.033314     8B1     3.457875
       8B2     3.465909     3A2     3.741619    16A1     3.743444
       9B1     3.783939     9B2     3.784523    17A1     3.971591
      10B1     4.006273    10B2     4.007158    18A1     4.185393
       4A2     4.329285    19A1     4.335035    20A1     4.547051
      11B1     4.637436    11B2     4.644845    12B1     5.044460
      12B2     5.044577     5A2     5.333685    21A1     5.334698
      22A1     5.746540    13B1     6.063041    13B2     6.064143
       6A2     6.138101    23A1     6.140251    24A1     6.568260
      14B1     6.692038    14B2     6.692362    25A1     7.269656
      26A1    10.630919

    Beta Occupied:

       1A1   -19.264091     2A1   -14.471199     3A1    -1.141652
       4A1    -0.676807     1B2    -0.461906     5A1    -0.460429
       1B1    -0.426735

    Beta Virtual:

       2B2    -0.137005     2B1    -0.094327     6A1     0.189532
       7A1     0.424935     3B2     0.431717     3B1     0.454797
       8A1     0.477030     9A1     0.562171     4B2     0.602982
       4B1     0.619902     1A2     0.961306    10A1     0.961363
       5B2     1.062358     5B1     1.088674    11A1     1.180696
      12A1     1.508246     2A2     1.508435    13A1     1.562154
       6B2     1.929856     6B1     1.953135    14A1     2.128231
       7B2     2.810583     7B1     2.850878    15A1     3.046462
       8B2     3.470356     8B1     3.500327    16A1     3.768323
       3A2     3.768835     9B2     3.832652     9B1     3.832740
      17A1     3.992855    10B2     4.012615    10B1     4.043956
      18A1     4.199455    19A1     4.399025     4A2     4.400021
      20A1     4.569391    11B2     4.652146    11B1     4.688996
      12B2     5.065879    12B1     5.065888    21A1     5.350296
       5A2     5.350331    22A1     5.760222    13B2     6.066147
      13B1     6.094815    23A1     6.171850     6A2     6.171951
      24A1     6.579166    14B2     6.693596    14B1     6.721107
      25A1     7.286335    26A1    10.648850

    Final Occupation by Irrep:
             A1    A2    B1    B2
    DOCC [     5,    0,    1,    1 ]
    SOCC [     0,    0,    1,    0 ]
    NA   [     5,    0,    2,    1 ]
    NB   [     5,    0,    1,    1 ]

  @DF-UKS Final Energy:  -129.91560593726018

   => Energetics <=

    Nuclear Repulsion Energy =             23.2073819912633432
    One-Electron Energy =                -223.1160658266296082
    Two-Electron Energy =                  82.3260847958092654
    DFT Exchange-Correlation Energy =     -12.3330068977031591
    Empirical Dispersion Energy =           0.0000000000000000
    VV10 Nonlocal Energy =                  0.0000000000000000
    Total Energy =                       -129.9156059372601817

  UHF NO Occupations:
  HONO-2 :    1 B2 1.9993695
  HONO-1 :    1 B1 1.9989910
  HONO-0 :    2 B1 1.0000000
  LUNO+0 :    3 B1 0.0010090
  LUNO+1 :    2 B2 0.0006305
  LUNO+2 :    6 A1 0.0005380
  LUNO+3 :    7 A1 0.0000906

Computation Completed

Properties will be evaluated at   0.000000,   0.000000,   0.000000 [a0]

Properties computed using the B3LYP density matrix

 Multipole Moments:

 ------------------------------------------------------------------------------------
     Multipole            Electronic (a.u.)      Nuclear  (a.u.)        Total (a.u.)
 ------------------------------------------------------------------------------------

 L = 1.  Multiply by 2.5417464519 to convert [e a0] to [Debye]
 Dipole X            :          0.0000000            0.0000000            0.0000000
 Dipole Y            :          0.0000000            0.0000000            0.0000000
 Dipole Z            :          0.0910748           -0.0048416            0.0862332
 Magnitude           :                                                    0.0862332

 L = 2.  Multiply by 1.3450342976 to convert [e a0^2] to [Debye ang]
 Quadrupole XX       :         -8.0699256            0.0000000           -8.0699256
 Quadrupole XY       :          0.0000000            0.0000000            0.0000000
 Quadrupole XZ       :          0.0000000            0.0000000            0.0000000
 Quadrupole YY       :         -7.2931720            0.0000000           -7.2931720
 Quadrupole YZ       :          0.0000000            0.0000000            0.0000000
 Quadrupole ZZ       :        -30.0018586           21.7380484           -8.2638102
 Traceless XX        :          7.0517265           -7.2460161           -0.1942897
 Traceless YY        :          7.8284801           -7.2460161            0.5824640
 Traceless ZZ        :        -14.8802066           14.4920323           -0.3881743

 ------------------------------------------------------------------------------------
  ==> Computing MBIS Charges <==

  Electron Count from Grid (Expected Number): 15.00000 (15.00000)
  Difference:  0.00000

  MBIS Charges: (a.u.)
   Center  Symbol  Z      Pop.       Charge
      1       O    8    8.085987   -0.085987
      2       N    7    6.914013    0.085987

  MBIS Dipoles: [e a0]
   Center  Symbol  Z        X           Y           Z
      1       O    8   -0.000000    0.000000    0.009733
      2       N    7    0.000000   -0.000000   -0.130989

  MBIS Quadrupoles: [e a0^2]
   Center  Symbol  Z      XX        XY        XZ        YY        YZ        ZZ
      1       O    8   -3.8930    0.0000   -0.0000   -3.6374    0.0000   -3.8255
      2       N    7   -4.1770    0.0000    0.0000   -3.6558    0.0000   -4.1126

  MBIS Octupoles: [e a0^3]
   Center  Symbol  Z      XXX       XXY       XXZ       XYY       XYZ       XZZ       YYY       YYZ       YZZ       ZZZ
      1       O    8    0.0000   -0.0000    0.0561   -0.0000    0.0000    0.0000   -0.0000   -0.0022   -0.0000   -0.1536
      2       N    7   -0.0000   -0.0000   -0.1634   -0.0000   -0.0000    0.0000   -0.0000    0.0314    0.0000    0.1135

  MBIS Radial Moments:
   Center  Symbol  Z      [a0^2]      [a0^3]      [a0^4]
      1       O    8   11.355886   21.214678   47.505829
      2       N    7   11.945274   25.051177   62.628985

  MBIS Valence Widths: [a0]
   Center  Symbol  Z     Width
      1       O    8    0.384530
      2       N    7    0.437882

*** tstop() called on Mac.lan at Sun Aug 10 17:20:48 2025
Module time:
	user time   =       3.84 seconds =       0.06 minutes
	system time =       1.94 seconds =       0.03 minutes
	total time  =          1 seconds =       0.02 minutes
Total time:
	user time   =      19.48 seconds =       0.32 minutes
	system time =       4.48 seconds =       0.07 minutes
	total time  =          3 seconds =       0.05 minutes

    Psi4 stopped on: Sunday, 10 August 2025 05:20PM
    Psi4 wall time for execution: 0:00:02.31

*** Psi4 exiting successfully. Buy a developer a beer!
