                               Psi4 1.9.1 release

  ==> Input File <==

--------------------------------------------------------------------------
molecule {
0 3
C           0.000000           0.000000           0.000000
C           0.000000           0.000000           1.474498
}

set {
basis              cc-pvtz
reference          uks
maxiter            500
DAMPING_PERCENTAGE 1
E_CONVERGENCE      1.0E-8
D_CONVERGENCE      1.0E-8
DIIS_MAX_VECS      400
MBIS_MAXITER       8000
guess              read
}

E, wfn = energy('b3lyp', restart_file='last_wfn', return_wfn=True)
properties('b3lyp','MBIS_CHARGES', wfn=wfn)
wfn.to_file('last_wfn')
--------------------------------------------------------------------------

    Molecular point group: d2h
  Charge       = 0
  Multiplicity = 3
  Basis Set: CC-PVTZ
    Blend: CC-PVTZ
  Basis Set: (CC-PVTZ AUX)
    Blend: CC-PVTZ-JKFIT
  @DF-UKS Final Energy:   -75.91938679727109
    Total Energy =                        -75.9193867972710876
 Dipole X            :          0.0000000            0.0000000            0.0000000
 Dipole Y            :          0.0000000            0.0000000            0.0000000
 Dipole Z            :          0.0000000            0.0000000            0.0000000
 Magnitude           :                                                    0.0000000
    Molecular point group: d2h

    Geometry (in Angstrom), charge = 0, multiplicity = 3:

       Center              X                  Y                   Z               Mass
    ------------   -----------------  -----------------  -----------------  -----------------
         C            0.000000000000     0.000000000000    -0.737249000000    12.000000000000
         C            0.000000000000     0.000000000000     0.737249000000    12.000000000000

  Charge       = 0
  Multiplicity = 3
  Basis Set: CC-PVTZ
    Blend: CC-PVTZ
  Basis Set: (CC-PVTZ AUX)
    Blend: CC-PVTZ-JKFIT

    Orbital Energies [Eh]
    ---------------------

    Alpha Occupied:

       1Ag   -10.318606     1B1u  -10.318162     2Ag    -0.777361
       2B1u   -0.480968     3Ag    -0.356042     1B3u   -0.344213
       1B2u   -0.312178

    Alpha Virtual:

       1B2g   -0.092538     1B3g   -0.065006     3B1u    0.157191
       2B3u    0.265971     4Ag     0.277004     2B2u    0.280946
       5Ag     0.322670     4B1u    0.338862     2B2g    0.346125
       2B3g    0.359125     1B1g    0.552554     6Ag     0.553169
       5B1u    0.603721     3B3u    0.652155     3B2u    0.675593
       1Au     0.806097     6B1u    0.806409     3B2g    1.087716
       3B3g    1.104087     7Ag     1.116503     7B1u    1.140476
       4B3u    1.873927     4B2u    1.897885     8Ag     1.967720
       4B2g    2.044570     4B3g    2.071160     2B1g    2.366572
       9Ag     2.366964     5B3u    2.369832     5B2u    2.396840
       8B1u    2.442621     6B3u    2.530980     6B2u    2.531110
      10Ag     2.550488     5B2g    2.752794     5B3g    2.752892
       3B1g    2.876770    11Ag     2.877031     9B1u    2.950388
       2Au     2.952324    10B1u    2.962223     6B2g    3.027022
       6B3g    3.048375     7B3u    3.209526     3Au     3.213409
      11B1u    3.214277     7B2u    3.234038    12B1u    3.590817
      12Ag     3.785647    13Ag     3.944938     7B2g    4.047684
       7B3g    4.073241    13B1u    8.291339

    Beta Occupied:

       1Ag   -10.302917     1B1u  -10.302671     2Ag    -0.712612
       2B1u   -0.395046     1B2u   -0.295007

    Beta Virtual:

       3Ag    -0.206311     1B3u   -0.203913     1B3g   -0.044318
       1B2g   -0.015564     3B1u    0.174615     2B2u    0.286731
       2B3u    0.296918     4Ag     0.301939     5Ag     0.354907
       2B3g    0.365511     2B2g    0.374567     4B1u    0.406489
       1B1g    0.578955     6Ag     0.581351     5B1u    0.621676
       3B2u    0.703261     3B3u    0.709910     1Au     0.829723
       6B1u    0.831719     3B3g    1.126318     3B2g    1.129358
       7Ag     1.158171     7B1u    1.180199     4B2u    1.911340
       4B3u    1.924666     8Ag     2.017012     4B3g    2.082627
       4B2g    2.093368     2B1g    2.408164     9Ag     2.410555
       5B2u    2.426504     5B3u    2.437877     8B1u    2.488964
       6B2u    2.563413     6B3u    2.564248    10Ag     2.616458
       5B3g    2.784649     5B2g    2.785496     3B1g    2.918687
      11Ag     2.923268     2Au     2.990073     9B1u    2.994181
      10B1u    3.020376     6B3g    3.094122     6B2g    3.106254
       3Au     3.256773    11B1u    3.259304     7B2u    3.278671
       7B3u    3.288060    12B1u    3.649896    12Ag     3.829704
      13Ag     3.990553     7B3g    4.104112     7B2g    4.112164
      13B1u    8.321169

    Final Occupation by Irrep:
             Ag   B1g   B2g   B3g    Au   B1u   B2u   B3u
    DOCC [     2,    0,    0,    0,    0,    2,    1,    0 ]
    SOCC [     1,    0,    0,    0,    0,    0,    0,    1 ]
    NA   [     3,    0,    0,    0,    0,    2,    1,    1 ]
    NB   [     2,    0,    0,    0,    0,    2,    1,    0 ]

  @DF-UKS Final Energy:   -75.91938679724028

   => Energetics <=

    Nuclear Repulsion Energy =             12.9199087310528711
    One-Electron Energy =                -126.6465982799024630
    Two-Electron Energy =                  46.2854262848657001
    DFT Exchange-Correlation Energy =      -8.4781235332563902
    Empirical Dispersion Energy =           0.0000000000000000
    VV10 Nonlocal Energy =                  0.0000000000000000
    Total Energy =                        -75.9193867972402927

  UHF NO Occupations:
  HONO-2 :    2B1u 1.9981992
  HONO-1 :    1B3u 1.0000000
  HONO-0 :    3 Ag 1.0000000
  LUNO+0 :    3B1u 0.0018008
  LUNO+1 :    4 Ag 0.0003967
  LUNO+2 :    2B2u 0.0001697
  LUNO+3 :    4B1u 0.0000006

Computation Completed

Properties will be evaluated at   0.000000,   0.000000,   0.000000 [a0]

Properties computed using the B3LYP density matrix

 Multipole Moments:

 ------------------------------------------------------------------------------------
     Multipole            Electronic (a.u.)      Nuclear  (a.u.)        Total (a.u.)
 ------------------------------------------------------------------------------------

 L = 1.  Multiply by 2.5417464519 to convert [e a0] to [Debye]
 Dipole X            :          0.0000000            0.0000000            0.0000000
 Dipole Y            :          0.0000000            0.0000000            0.0000000
 Dipole Z            :          0.0000000            0.0000000            0.0000000
 Magnitude           :                                                    0.0000000

 L = 2.  Multiply by 1.3450342976 to convert [e a0^2] to [Debye ang]
 Quadrupole XX       :         -8.1915807            0.0000000           -8.1915807
 Quadrupole XY       :          0.0000000            0.0000000            0.0000000
 Quadrupole XZ       :          0.0000000            0.0000000            0.0000000
 Quadrupole YY       :         -9.7433758            0.0000000           -9.7433758
 Quadrupole YZ       :          0.0000000            0.0000000            0.0000000
 Quadrupole ZZ       :        -32.2392973           23.2920313           -8.9472660
 Traceless XX        :          8.5331706           -7.7640104            0.7691601
 Traceless YY        :          6.9813755           -7.7640104           -0.7826350
 Traceless ZZ        :        -15.5145460           15.5280209            0.0134748

 ------------------------------------------------------------------------------------
  ==> Computing MBIS Charges <==

  Electron Count from Grid (Expected Number): 12.00000 (12.00000)
  Difference:  0.00000

  MBIS Charges: (a.u.)
   Center  Symbol  Z      Pop.       Charge
      1       C    6    6.000000   -0.000000
      2       C    6    6.000000   -0.000000

  MBIS Dipoles: [e a0]
   Center  Symbol  Z        X           Y           Z
      1       C    6   -0.000000    0.000000   -0.101629
      2       C    6    0.000000    0.000000    0.101629

  MBIS Quadrupoles: [e a0^2]
   Center  Symbol  Z      XX        XY        XZ        YY        YZ        ZZ
      1       C    6   -4.0958    0.0000   -0.0000   -4.8717   -0.0000   -4.7568
      2       C    6   -4.0958   -0.0000    0.0000   -4.8717    0.0000   -4.7568

  MBIS Octupoles: [e a0^3]
   Center  Symbol  Z      XXX       XXY       XXZ       XYY       XYZ       XZZ       YYY       YYZ       YZZ       ZZZ
      1       C    6   -0.0000    0.0000   -0.0907   -0.0000    0.0000   -0.0000    0.0000   -0.3384    0.0000   -0.5315
      2       C    6   -0.0000    0.0000    0.0907   -0.0000   -0.0000   -0.0000    0.0000    0.3384    0.0000    0.5315

  MBIS Radial Moments:
   Center  Symbol  Z      [a0^2]      [a0^3]      [a0^4]
      1       C    6   13.724291   33.722000   98.736896
      2       C    6   13.724291   33.722000   98.736896

  MBIS Valence Widths: [a0]
   Center  Symbol  Z     Width
      1       C    6    0.519103
      2       C    6    0.519103

*** tstop() called on Mac.lan at Sun Aug 10 17:04:18 2025
Module time:
	user time   =       3.86 seconds =       0.06 minutes
	system time =       1.76 seconds =       0.03 minutes
	total time  =          1 seconds =       0.02 minutes
Total time:
	user time   =      16.83 seconds =       0.28 minutes
	system time =       4.34 seconds =       0.07 minutes
	total time  =          2 seconds =       0.03 minutes

    Psi4 stopped on: Sunday, 10 August 2025 05:04PM
    Psi4 wall time for execution: 0:00:02.07

*** Psi4 exiting successfully. Buy a developer a beer!
