                               Psi4 1.9.1 release

  ==> Input File <==

--------------------------------------------------------------------------
molecule {
0 2
N           0.000000           0.000000           0.000000
C           0.000000           0.000000           0.804456
}

set {
basis              cc-pvtz
reference          uks
maxiter            500
DAMPING_PERCENTAGE 1
E_CONVERGENCE      1.0E-8
D_CONVERGENCE      1.0E-8
DIIS_MAX_VECS      400
MBIS_MAXITER       8000
guess              read
}

E, wfn = energy('b3lyp', restart_file='last_wfn', return_wfn=True)
properties('b3lyp','MBIS_CHARGES', wfn=wfn)
wfn.to_file('last_wfn')
--------------------------------------------------------------------------

    Molecular point group: c2v
  Charge       = 0
  Multiplicity = 2
  Basis Set: CC-PVTZ
    Blend: CC-PVTZ
  Basis Set: (CC-PVTZ AUX)
    Blend: CC-PVTZ-JKFIT
  @DF-UKS Final Energy:   -92.11718162976176
    Total Energy =                        -92.1171816297617596
 Dipole X            :          0.0000000            0.0000000            0.0000000
 Dipole Y            :          0.0000000            0.0000000            0.0000000
 Dipole Z            :          0.8383871            0.0010783            0.8394654
 Magnitude           :                                                    0.8394654
    Molecular point group: c2v

    Geometry (in Angstrom), charge = 0, multiplicity = 2:

       Center              X                  Y                   Z               Mass
    ------------   -----------------  -----------------  -----------------  -----------------
         N            0.000000000000     0.000000000000    -0.371243492148    14.003074004430
         C            0.000000000000     0.000000000000     0.433212507852    12.000000000000

  Charge       = 0
  Multiplicity = 2
  Basis Set: CC-PVTZ
    Blend: CC-PVTZ
  Basis Set: (CC-PVTZ AUX)
    Blend: CC-PVTZ-JKFIT

    Orbital Energies [Eh]
    ---------------------

    Alpha Occupied:

       1A1   -14.262339     2A1   -10.210861     3A1    -1.021771
       1B2    -0.507605     1B1    -0.507605     4A1    -0.452046
       5A1    -0.357500

    Alpha Virtual:

       2B1     0.121633     2B2     0.121633     6A1     0.185613
       7A1     0.235764     3B2     0.283819     3B1     0.283819
       8A1     0.470120     4B1     0.554652     4B2     0.554652
       1A2     0.617031     9A1     0.617031    10A1     0.824267
       5B2     0.980907     5B1     0.980907    11A1     1.089258
      12A1     1.280021     2A2     1.280021     6B2     1.532457
       6B1     1.532457    13A1     1.559130     7B1     1.914969
       7B2     1.914969    14A1     2.234299    15A1     2.467864
       8B1     2.598275     8B2     2.598275     3A2     2.808312
      16A1     2.808312     9B2     2.881004     9B1     2.881004
      17A1     2.914247    18A1     2.972302     4A2     2.972302
      10B2     3.363137    10B1     3.363137    19A1     3.437516
      11B2     3.737881    11B1     3.737881    12B1     4.140151
      12B2     4.140151    20A1     4.569167     5A2     4.569168
      21A1     4.725281    13B2     5.166360    13B1     5.166360
      22A1     5.292096     6A2     5.292096    23A1     5.666129
      24A1     6.413791    14B1     6.491987    14B2     6.491987
      25A1     8.055249    26A1    17.965615

    Beta Occupied:

       1A1   -14.260180     2A1   -10.191103     3A1    -1.007037
       1B2    -0.494902     1B1    -0.494902     4A1    -0.354872

    Beta Virtual:

       5A1    -0.227482     2B1     0.140565     2B2     0.140565
       6A1     0.192558     7A1     0.283963     3B2     0.299459
       3B1     0.299459     8A1     0.483719     4B1     0.569675
       4B2     0.569675     1A2     0.631470     9A1     0.631471
      10A1     0.873391     5B2     1.006315     5B1     1.006315
      11A1     1.100561     2A2     1.282738    12A1     1.282738
       6B2     1.542844     6B1     1.542844    13A1     1.604185
       7B1     1.937352     7B2     1.937352    14A1     2.266617
      15A1     2.544343     8B1     2.619288     8B2     2.619288
       3A2     2.831675    16A1     2.831676     9B2     2.975448
       9B1     2.975448    17A1     2.979862     4A2     3.029613
      18A1     3.029617    10B2     3.368588    10B1     3.368588
      19A1     3.493984    11B2     3.769986    11B1     3.769986
      12B1     4.140103    12B2     4.140103    20A1     4.564103
       5A2     4.564104    21A1     4.741760    13B2     5.176072
      13B1     5.176072     6A2     5.302552    22A1     5.302553
      23A1     5.681432    24A1     6.453474    14B1     6.520167
      14B2     6.520167    25A1     8.069868    26A1    17.994660

    Final Occupation by Irrep:
             A1    A2    B1    B2
    DOCC [     4,    0,    1,    1 ]
    SOCC [     1,    0,    0,    0 ]
    NA   [     5,    0,    1,    1 ]
    NB   [     4,    0,    1,    1 ]

  @DF-UKS Final Energy:   -92.11718163019563

   => Energetics <=

    Nuclear Repulsion Energy =             27.6279160676780329
    One-Electron Energy =                -177.9561628519907686
    Two-Electron Energy =                  68.5225346556049857
    DFT Exchange-Correlation Energy =     -10.3114695014878723
    Empirical Dispersion Energy =           0.0000000000000000
    VV10 Nonlocal Energy =                  0.0000000000000000
    Total Energy =                        -92.1171816301956312

  UHF NO Occupations:
  HONO-2 :    1 B1 1.9991091
  HONO-1 :    1 B2 1.9991091
  HONO-0 :    5 A1 1.0000000
  LUNO+0 :    2 B1 0.0008909
  LUNO+1 :    2 B2 0.0008909
  LUNO+2 :    6 A1 0.0000836
  LUNO+3 :    7 A1 0.0000131

Computation Completed

Properties will be evaluated at   0.000000,   0.000000,   0.000000 [a0]

Properties computed using the B3LYP density matrix

 Multipole Moments:

 ------------------------------------------------------------------------------------
     Multipole            Electronic (a.u.)      Nuclear  (a.u.)        Total (a.u.)
 ------------------------------------------------------------------------------------

 L = 1.  Multiply by 2.5417464519 to convert [e a0] to [Debye]
 Dipole X            :          0.0000000            0.0000000            0.0000000
 Dipole Y            :          0.0000000            0.0000000            0.0000000
 Dipole Z            :          0.8383871            0.0010783            0.8394654
 Magnitude           :                                                    0.8394654

 L = 2.  Multiply by 1.3450342976 to convert [e a0^2] to [Debye ang]
 Quadrupole XX       :         -7.0136499            0.0000000           -7.0136499
 Quadrupole XY       :          0.0000000            0.0000000            0.0000000
 Quadrupole XZ       :          0.0000000            0.0000000            0.0000000
 Quadrupole YY       :         -7.0136499            0.0000000           -7.0136499
 Quadrupole YZ       :          0.0000000            0.0000000            0.0000000
 Quadrupole ZZ       :        -15.1071055            7.4663487           -7.6407568
 Traceless XX        :          2.6978185           -2.4887829            0.2090356
 Traceless YY        :          2.6978185           -2.4887829            0.2090356
 Traceless ZZ        :         -5.3956370            4.9775658           -0.4180713

 ------------------------------------------------------------------------------------
  ==> Computing MBIS Charges <==

  Electron Count from Grid (Expected Number): 13.00000 (13.00000)
  Difference:  0.00000

  MBIS Charges: (a.u.)
   Center  Symbol  Z      Pop.       Charge
      1       N    7    7.544479   -0.544479
      2       C    6    5.455522    0.544478

  MBIS Dipoles: [e a0]
   Center  Symbol  Z        X           Y           Z
      1       N    7   -0.000000   -0.000000   -0.061852
      2       C    6   -0.000000    0.000000    0.073600

  MBIS Quadrupoles: [e a0^2]
   Center  Symbol  Z      XX        XY        XZ        YY        YZ        ZZ
      1       N    7   -4.0630    0.0000   -0.0000   -4.0630    0.0000   -4.6930
      2       C    6   -2.9507    0.0000    0.0000   -2.9507    0.0000   -3.2520

  MBIS Octupoles: [e a0^3]
   Center  Symbol  Z      XXX       XXY       XXZ       XYY       XYZ       XZZ       YYY       YYZ       YZZ       ZZZ
      1       N    7   -0.0000   -0.0000    0.0425   -0.0000    0.0000   -0.0000   -0.0000    0.0425    0.0000    0.5446
      2       C    6   -0.0000   -0.0000   -0.1177   -0.0000    0.0000    0.0000    0.0000   -0.1177    0.0000   -0.4443

  MBIS Radial Moments:
   Center  Symbol  Z      [a0^2]      [a0^3]      [a0^4]
      1       N    7   12.818937   26.686182   66.924042
      2       C    6    9.153339   19.999587   52.942594

  MBIS Valence Widths: [a0]
   Center  Symbol  Z     Width
      1       N    7    0.425213
      2       C    6    0.446389

*** tstop() called on Mac.lan at Sun Aug 10 17:13:27 2025
Module time:
	user time   =       3.57 seconds =       0.06 minutes
	system time =       2.61 seconds =       0.04 minutes
	total time  =          1 seconds =       0.02 minutes
Total time:
	user time   =      18.01 seconds =       0.30 minutes
	system time =       5.17 seconds =       0.09 minutes
	total time  =          2 seconds =       0.03 minutes

    Psi4 stopped on: Sunday, 10 August 2025 05:13PM
    Psi4 wall time for execution: 0:00:02.25

*** Psi4 exiting successfully. Buy a developer a beer!
