                               Psi4 1.9.1 release

  ==> Input File <==

--------------------------------------------------------------------------
molecule {
0 2
C           0.000000           0.000000           0.000000
H           0.000000           0.000000           1.169566
}

set {
basis              cc-pvtz
reference          uks
maxiter            500
DAMPING_PERCENTAGE 1
E_CONVERGENCE      1.0E-8
D_CONVERGENCE      1.0E-8
DIIS_MAX_VECS      400
MBIS_MAXITER       8000
guess              SAP
}

E, wfn = energy('b3lyp', return_wfn=True)
properties('b3lyp','MBIS_CHARGES', wfn=wfn)
wfn.to_file('last_wfn')
--------------------------------------------------------------------------

    Molecular point group: c2v
  Charge       = 0
  Multiplicity = 2
  Basis Set: CC-PVTZ
    Blend: CC-PVTZ
  Basis Set: (CC-PVTZ AUX)
    Blend: CC-PVTZ-JKFIT
  @DF-UKS Final Energy:   -38.49530388790835
    Total Energy =                        -38.4953038879083564
 Dipole X            :          0.0000000            0.0000000            0.0000000
 Dipole Y            :          0.0000000            0.0000000            0.0000000
 Dipole Z            :         -0.4659393            1.0114826            0.5455433
 Magnitude           :                                                    0.5455433
    Molecular point group: c2v

    Geometry (in Angstrom), charge = 0, multiplicity = 2:

       Center              X                  Y                   Z               Mass
    ------------   -----------------  -----------------  -----------------  -----------------
         C            0.000000000000     0.000000000000    -0.090616062926    12.000000000000
         H            0.000000000000     0.000000000000     1.078949937074     1.007825032230

  Charge       = 0
  Multiplicity = 2
  Basis Set: CC-PVTZ
    Blend: CC-PVTZ
  Basis Set: (CC-PVTZ AUX)
    Blend: CC-PVTZ-JKFIT

    Orbital Energies [Eh]
    ---------------------

    Alpha Occupied:

       1A1   -10.286683     2A1    -0.641193     3A1    -0.323872
       1B1    -0.260286

    Alpha Virtual:

       1B2    -0.148188     4A1     0.052402     5A1     0.280565
       2B1     0.291106     2B2     0.310790     6A1     0.341444
       7A1     0.442300     3B1     0.563017     3B2     0.566157
       1A2     0.654885     8A1     0.660629     9A1     0.943427
       4B1     1.015588     4B2     1.016009    10A1     1.328006
       5B1     1.925280     5B2     1.951520    11A1     2.084242
      12A1     2.222219     2A2     2.523977    13A1     2.527700
       6B1     2.598723     6B2     2.604824     7B1     2.640881
       7B2     2.643393    14A1     2.862133     3A2     2.899517
      15A1     2.914525     8B1     3.047490     8B2     3.056738
      16A1     3.171292     4A2     3.508227    17A1     3.509831
       9B2     3.774112     9B1     3.776576    18A1     4.292053
      10B1     4.558929    10B2     4.559825    19A1     4.629151
      20A1     7.585172

    Beta Occupied:

       1A1   -10.271893     2A1    -0.597964     3A1    -0.304432

    Beta Virtual:

       1B2    -0.132104     1B1    -0.086067     4A1     0.058207
       5A1     0.287030     2B2     0.318244     2B1     0.346885
       6A1     0.351484     7A1     0.458509     3B2     0.567461
       3B1     0.589676     8A1     0.698114     1A2     0.698407
       9A1     0.956406     4B2     1.017439     4B1     1.037087
      10A1     1.337853     5B2     1.962965     5B1     2.006969
      11A1     2.093830    12A1     2.236589     2A2     2.554111
      13A1     2.554363     6B2     2.607842     6B1     2.640130
       7B2     2.699486     7B1     2.700285    14A1     2.881166
       3A2     2.977366    15A1     2.982136     8B2     3.061329
       8B1     3.101154    16A1     3.186122     4A2     3.518601
      17A1     3.518978     9B2     3.770049     9B1     3.778888
      18A1     4.300876    10B2     4.560446    10B1     4.582814
      19A1     4.633943    20A1     7.602008

    Final Occupation by Irrep:
             A1    A2    B1    B2
    DOCC [     3,    0,    0,    0 ]
    SOCC [     0,    0,    1,    0 ]
    NA   [     3,    0,    1,    0 ]
    NB   [     3,    0,    0,    0 ]

  @DF-UKS Final Energy:   -38.49530388790835

   => Energetics <=

    Nuclear Repulsion Energy =              2.7147362902307357
    One-Electron Energy =                 -56.4584460208813113
    Two-Electron Energy =                  19.7840529019630686
    DFT Exchange-Correlation Energy =      -4.5356470592208398
    Empirical Dispersion Energy =           0.0000000000000000
    VV10 Nonlocal Energy =                  0.0000000000000000
    Total Energy =                        -38.4953038879083564

  UHF NO Occupations:
  HONO-2 :    2 A1 1.9998151
  HONO-1 :    3 A1 1.9986619
  HONO-0 :    1 B1 1.0000000
  LUNO+0 :    4 A1 0.0013381
  LUNO+1 :    5 A1 0.0001849
  LUNO+2 :    6 A1 0.0000007
  LUNO+3 :    7 A1 0.0000000

Computation Completed

Properties will be evaluated at   0.000000,   0.000000,   0.000000 [a0]

Properties computed using the B3LYP density matrix

 Multipole Moments:

 ------------------------------------------------------------------------------------
     Multipole            Electronic (a.u.)      Nuclear  (a.u.)        Total (a.u.)
 ------------------------------------------------------------------------------------

 L = 1.  Multiply by 2.5417464519 to convert [e a0] to [Debye]
 Dipole X            :          0.0000000            0.0000000            0.0000000
 Dipole Y            :          0.0000000            0.0000000            0.0000000
 Dipole Z            :         -0.4659393            1.0114826            0.5455433
 Magnitude           :                                                    0.5455433

 L = 2.  Multiply by 1.3450342976 to convert [e a0^2] to [Debye ang]
 Quadrupole XX       :         -5.7352605            0.0000000           -5.7352605
 Quadrupole XY       :          0.0000000            0.0000000            0.0000000
 Quadrupole XZ       :          0.0000000            0.0000000            0.0000000
 Quadrupole YY       :         -4.2419747            0.0000000           -4.2419747
 Quadrupole YZ       :          0.0000000            0.0000000            0.0000000
 Quadrupole ZZ       :         -9.9099401            4.3331322           -5.5768079
 Traceless XX        :          0.8937979           -1.4443774           -0.5505795
 Traceless YY        :          2.3870838           -1.4443774            0.9427064
 Traceless ZZ        :         -3.2808817            2.8887548           -0.3921269

 ------------------------------------------------------------------------------------
  ==> Computing MBIS Charges <==

  Electron Count from Grid (Expected Number):  7.00000 ( 7.00000)
  Difference: -0.00000

  MBIS Charges: (a.u.)
   Center  Symbol  Z      Pop.       Charge
      1       C    6    6.077626   -0.077626
      2       H    1    0.922374    0.077626

  MBIS Dipoles: [e a0]
   Center  Symbol  Z        X           Y           Z
      1       C    6    0.000000    0.000000    0.322853
      2       H    1   -0.000000    0.000000    0.051125

  MBIS Quadrupoles: [e a0^2]
   Center  Symbol  Z      XX        XY        XZ        YY        YZ        ZZ
      1       C    6   -5.1343    0.0000   -0.0000   -3.7135   -0.0000   -5.3997
      2       H    1   -0.6009   -0.0000   -0.0000   -0.5285   -0.0000   -0.5955

  MBIS Octupoles: [e a0^3]
   Center  Symbol  Z      XXX       XXY       XXZ       XYY       XYZ       XZZ       YYY       YYZ       YZZ       ZZZ
      1       C    6    0.0000    0.0000    0.4310    0.0000   -0.0000   -0.0000    0.0000    0.4463    0.0000    0.7967
      2       H    1    0.0000   -0.0000    0.0005   -0.0000   -0.0000   -0.0000    0.0000   -0.0426    0.0000   -0.0311

  MBIS Radial Moments:
   Center  Symbol  Z      [a0^2]      [a0^3]      [a0^4]
      1       C    6   14.247496   35.592808   106.370132
      2       H    1    1.724885    3.385754    8.016820

  MBIS Valence Widths: [a0]
   Center  Symbol  Z     Width
      1       C    6    0.523712
      2       H    1    0.397247

*** tstop() called on Mac.lan at Sun Aug 10 17:09:05 2025
Module time:
	user time   =      10.04 seconds =       0.17 minutes
	system time =       1.87 seconds =       0.03 minutes
	total time  =          1 seconds =       0.02 minutes
Total time:
	user time   =      21.02 seconds =       0.35 minutes
	system time =       4.25 seconds =       0.07 minutes
	total time  =          3 seconds =       0.05 minutes

    Psi4 stopped on: Sunday, 10 August 2025 05:09PM
    Psi4 wall time for execution: 0:00:02.42

*** Psi4 exiting successfully. Buy a developer a beer!
