                               Psi4 1.9.1 release

  ==> Input File <==

--------------------------------------------------------------------------
molecule {
0 2
O           0.000000           0.000000           0.000000
N           0.000000           0.000000           1.255870
}

set {
basis              cc-pvtz
reference          uks
maxiter            500
DAMPING_PERCENTAGE 1
E_CONVERGENCE      1.0E-8
D_CONVERGENCE      1.0E-8
DIIS_MAX_VECS      400
MBIS_MAXITER       8000
guess              read
}

E, wfn = energy('b3lyp', restart_file='last_wfn', return_wfn=True)
properties('b3lyp','MBIS_CHARGES', wfn=wfn)
wfn.to_file('last_wfn')
--------------------------------------------------------------------------

    Molecular point group: c2v
  Charge       = 0
  Multiplicity = 2
  Basis Set: CC-PVTZ
    Blend: CC-PVTZ
  Basis Set: (CC-PVTZ AUX)
    Blend: CC-PVTZ-JKFIT
  @DF-UKS Final Energy:  -129.92212190380107
    Total Energy =                       -129.9221219038010702
 Dipole X            :          0.0000000            0.0000000            0.0000000
 Dipole Y            :          0.0000000            0.0000000            0.0000000
 Dipole Z            :          0.0708289           -0.0047618            0.0660670
 Magnitude           :                                                    0.0660670
    Molecular point group: c2v

    Geometry (in Angstrom), charge = 0, multiplicity = 2:

       Center              X                  Y                   Z               Mass
    ------------   -----------------  -----------------  -----------------  -----------------
         O            0.000000000000     0.000000000000    -0.586240656678    15.994914619570
         N            0.000000000000     0.000000000000     0.669629343322    14.003074004430

  Charge       = 0
  Multiplicity = 2
  Basis Set: CC-PVTZ
    Blend: CC-PVTZ
  Basis Set: (CC-PVTZ AUX)
    Blend: CC-PVTZ-JKFIT

    Orbital Energies [Eh]
    ---------------------

    Alpha Occupied:

       1A1   -19.273224     2A1   -14.483607     3A1    -1.176855
       4A1    -0.712832     1B1    -0.506890     5A1    -0.482193
       1B2    -0.476757     2B1    -0.257925

    Alpha Virtual:

       2B2    -0.146851     6A1     0.189373     3B1     0.415650
       7A1     0.421589     3B2     0.423505     8A1     0.463304
       9A1     0.555325     4B1     0.594387     4B2     0.600686
       1A2     0.930204    10A1     0.932069     5B2     1.069199
       5B1     1.069301    11A1     1.173580     2A2     1.492517
      12A1     1.493633    13A1     1.557137     6B1     1.938243
       6B2     1.939409    14A1     2.131393     7B1     2.782558
       7B2     2.800574    15A1     3.035862     8B1     3.465569
       8B2     3.473608     3A2     3.741647    16A1     3.743446
       9B1     3.783508     9B2     3.784094    17A1     4.008669
      10B1     4.012925    10B2     4.013778    18A1     4.147510
       4A2     4.333144    19A1     4.338964    20A1     4.567583
      11B1     4.652582    11B2     4.659430    12B1     5.043822
      12B2     5.043938     5A2     5.361534    21A1     5.362559
      22A1     5.827540    13B1     6.119105    13B2     6.120633
       6A2     6.139564    23A1     6.141694    24A1     6.619452
      14B2     6.717834    14B1     6.717968    25A1     7.244082
      26A1    10.993080

    Beta Occupied:

       1A1   -19.263592     2A1   -14.466888     3A1    -1.154938
       4A1    -0.673234     1B2    -0.468149     5A1    -0.461586
       1B1    -0.432842

    Beta Virtual:

       2B2    -0.130645     2B1    -0.088072     6A1     0.203078
       3B2     0.430589     7A1     0.435031     3B1     0.453585
       8A1     0.475532     9A1     0.561571     4B2     0.603232
       4B1     0.620188     1A2     0.959017    10A1     0.959082
       5B2     1.071831     5B1     1.098409    11A1     1.182632
      12A1     1.512872     2A2     1.513103    13A1     1.570938
       6B2     1.941911     6B1     1.965215    14A1     2.142991
       7B2     2.815362     7B1     2.855702    15A1     3.049132
       8B2     3.478547     8B1     3.508623    16A1     3.767770
       3A2     3.768109     9B2     3.831432     9B1     3.831517
      10B2     4.019158    17A1     4.030150    10B1     4.050579
      18A1     4.161826    19A1     4.402354     4A2     4.402931
      20A1     4.588153    11B2     4.666163    11B1     4.702765
      12B2     5.065925    12B1     5.065934     5A2     5.378747
      21A1     5.378749    22A1     5.841131    13B2     6.123077
      13B1     6.152003    23A1     6.174257     6A2     6.174330
      24A1     6.630964    14B2     6.719520    14B1     6.747018
      25A1     7.260853    26A1    11.011317

    Final Occupation by Irrep:
             A1    A2    B1    B2
    DOCC [     5,    0,    1,    1 ]
    SOCC [     0,    0,    1,    0 ]
    NA   [     5,    0,    2,    1 ]
    NB   [     5,    0,    1,    1 ]

  @DF-UKS Final Energy:  -129.92212190323590

   => Energetics <=

    Nuclear Repulsion Energy =             23.5963306691934669
    One-Electron Energy =                -223.8677064687902600
    Two-Electron Energy =                  82.6950528899263730
    DFT Exchange-Correlation Energy =     -12.3457989935654826
    Empirical Dispersion Energy =           0.0000000000000000
    VV10 Nonlocal Energy =                  0.0000000000000000
    Total Energy =                       -129.9221219032359045

  UHF NO Occupations:
  HONO-2 :    5 A1 1.9994716
  HONO-1 :    1 B1 1.9990183
  HONO-0 :    2 B1 1.0000000
  LUNO+0 :    3 B1 0.0009817
  LUNO+1 :    6 A1 0.0005284
  LUNO+2 :    2 B2 0.0004551
  LUNO+3 :    7 A1 0.0000908

Computation Completed

Properties will be evaluated at   0.000000,   0.000000,   0.000000 [a0]

Properties computed using the B3LYP density matrix

 Multipole Moments:

 ------------------------------------------------------------------------------------
     Multipole            Electronic (a.u.)      Nuclear  (a.u.)        Total (a.u.)
 ------------------------------------------------------------------------------------

 L = 1.  Multiply by 2.5417464519 to convert [e a0] to [Debye]
 Dipole X            :          0.0000000            0.0000000            0.0000000
 Dipole Y            :          0.0000000            0.0000000            0.0000000
 Dipole Z            :          0.0708289           -0.0047618            0.0660671
 Magnitude           :                                                    0.0660671

 L = 2.  Multiply by 1.3450342976 to convert [e a0^2] to [Debye ang]
 Quadrupole XX       :         -8.0459104            0.0000000           -8.0459104
 Quadrupole XY       :          0.0000000            0.0000000            0.0000000
 Quadrupole XZ       :          0.0000000            0.0000000            0.0000000
 Quadrupole YY       :         -7.2641177            0.0000000           -7.2641177
 Quadrupole YZ       :          0.0000000            0.0000000            0.0000000
 Quadrupole ZZ       :        -29.3177107           21.0273191           -8.2903915
 Traceless XX        :          6.8300025           -7.0091064           -0.1791038
 Traceless YY        :          7.6117952           -7.0091064            0.6026888
 Traceless ZZ        :        -14.4417978           14.0182128           -0.4235850

 ------------------------------------------------------------------------------------
  ==> Computing MBIS Charges <==

  Electron Count from Grid (Expected Number): 15.00000 (15.00000)
  Difference:  0.00000

  MBIS Charges: (a.u.)
   Center  Symbol  Z      Pop.       Charge
      1       O    8    8.078771   -0.078771
      2       N    7    6.921230    0.078770

  MBIS Dipoles: [e a0]
   Center  Symbol  Z        X           Y           Z
      1       O    8    0.000000    0.000000    0.016393
      2       N    7   -0.000000   -0.000000   -0.137268

  MBIS Quadrupoles: [e a0^2]
   Center  Symbol  Z      XX        XY        XZ        YY        YZ        ZZ
      1       O    8   -3.8675    0.0000   -0.0000   -3.6128    0.0000   -3.8153
      2       N    7   -4.1784    0.0000    0.0000   -3.6514    0.0000   -4.1208

  MBIS Octupoles: [e a0^3]
   Center  Symbol  Z      XXX       XXY       XXZ       XYY       XYZ       XZZ       YYY       YYZ       YZZ       ZZZ
      1       O    8    0.0000   -0.0000    0.0656   -0.0000    0.0000   -0.0000   -0.0000    0.0079    0.0000   -0.1307
      2       N    7   -0.0000   -0.0000   -0.1816   -0.0000   -0.0000    0.0000   -0.0000    0.0199   -0.0000    0.0925

  MBIS Radial Moments:
   Center  Symbol  Z      [a0^2]      [a0^3]      [a0^4]
      1       O    8   11.295541   21.054440   47.051739
      2       N    7   11.950614   25.053964   62.618941

  MBIS Valence Widths: [a0]
   Center  Symbol  Z     Width
      1       O    8    0.383681
      2       N    7    0.437626

*** tstop() called on Mac.lan at Sun Aug 10 17:20:45 2025
Module time:
	user time   =       3.51 seconds =       0.06 minutes
	system time =       2.69 seconds =       0.04 minutes
	total time  =          1 seconds =       0.02 minutes
Total time:
	user time   =      18.90 seconds =       0.32 minutes
	system time =       5.32 seconds =       0.09 minutes
	total time  =          3 seconds =       0.05 minutes

    Psi4 stopped on: Sunday, 10 August 2025 05:20PM
    Psi4 wall time for execution: 0:00:02.33

*** Psi4 exiting successfully. Buy a developer a beer!
