                               Psi4 1.9.1 release

  ==> Input File <==

--------------------------------------------------------------------------
molecule {
0 2
N           0.000000           0.000000           0.000000
C           0.000000           0.000000           0.847170
}

set {
basis              cc-pvtz
reference          uks
maxiter            500
DAMPING_PERCENTAGE 1
E_CONVERGENCE      1.0E-8
D_CONVERGENCE      1.0E-8
DIIS_MAX_VECS      400
MBIS_MAXITER       8000
guess              read
}

E, wfn = energy('b3lyp', restart_file='last_wfn', return_wfn=True)
properties('b3lyp','MBIS_CHARGES', wfn=wfn)
wfn.to_file('last_wfn')
--------------------------------------------------------------------------

    Molecular point group: c2v
  Charge       = 0
  Multiplicity = 2
  Basis Set: CC-PVTZ
    Blend: CC-PVTZ
  Basis Set: (CC-PVTZ AUX)
    Blend: CC-PVTZ-JKFIT
  @DF-UKS Final Energy:   -92.31093434027424
    Total Energy =                        -92.3109343402742439
 Dipole X            :          0.0000000            0.0000000            0.0000000
 Dipole Y            :          0.0000000            0.0000000            0.0000000
 Dipole Z            :          0.8069979            0.0011355            0.8081334
 Magnitude           :                                                    0.8081334
    Molecular point group: c2v

    Geometry (in Angstrom), charge = 0, multiplicity = 2:

       Center              X                  Y                   Z               Mass
    ------------   -----------------  -----------------  -----------------  -----------------
         N            0.000000000000     0.000000000000    -0.390955315447    14.003074004430
         C            0.000000000000     0.000000000000     0.456214684553    12.000000000000

  Charge       = 0
  Multiplicity = 2
  Basis Set: CC-PVTZ
    Blend: CC-PVTZ
  Basis Set: (CC-PVTZ AUX)
    Blend: CC-PVTZ-JKFIT

    Orbital Energies [Eh]
    ---------------------

    Alpha Occupied:

       1A1   -14.273895     2A1   -10.214087     3A1    -1.030942
       1B1    -0.488825     1B2    -0.488825     4A1    -0.455645
       5A1    -0.370124

    Alpha Virtual:

       2B1     0.108370     2B2     0.108370     6A1     0.182355
       7A1     0.239732     3B2     0.279084     3B1     0.279084
       8A1     0.464346     4B1     0.546725     4B2     0.546725
       9A1     0.616270     1A2     0.616270    10A1     0.813651
       5B1     0.957045     5B2     0.957045    11A1     1.055758
      12A1     1.265361     2A2     1.265361    13A1     1.554792
       6B2     1.555658     6B1     1.555658     7B2     1.894685
       7B1     1.894685    14A1     2.175133    15A1     2.415510
       8B2     2.598031     8B1     2.598031    16A1     2.808771
       3A2     2.808771     9B1     2.873203     9B2     2.873203
      17A1     2.878082     4A2     2.954435    18A1     2.954435
      10B1     3.305467    10B2     3.305467    19A1     3.362211
      11B1     3.666151    11B2     3.666151    12B2     4.103905
      12B1     4.103905    20A1     4.563956     5A2     4.563957
      21A1     4.657882    13B1     5.083924    13B2     5.083924
      22A1     5.156727     6A2     5.156727    23A1     5.581623
      24A1     6.124379    14B1     6.379638    14B2     6.379638
      25A1     7.956191    26A1    17.369411

    Beta Occupied:

       1A1   -14.271850     2A1   -10.194497     3A1    -1.014700
       1B2    -0.476642     1B1    -0.476642     4A1    -0.366425

    Beta Virtual:

       5A1    -0.233201     2B1     0.128907     2B2     0.128907
       6A1     0.189201     7A1     0.287282     3B2     0.293925
       3B1     0.293925     8A1     0.477087     4B1     0.558403
       4B2     0.558403     1A2     0.630524     9A1     0.630524
      10A1     0.861966     5B1     0.983661     5B2     0.983661
      11A1     1.065095    12A1     1.268109     2A2     1.268109
       6B2     1.565250     6B1     1.565250    13A1     1.601370
       7B2     1.917081     7B1     1.917081    14A1     2.205482
      15A1     2.483524     8B2     2.618830     8B1     2.618830
      16A1     2.826498     3A2     2.826498    17A1     2.934035
       9B1     2.964772     9B2     2.964772     4A2     3.014843
      18A1     3.014846    10B1     3.309627    10B2     3.309627
      19A1     3.432336    11B1     3.699431    11B2     3.699431
      12B2     4.102786    12B1     4.102786    20A1     4.558361
       5A2     4.558362    21A1     4.675608    13B1     5.092964
      13B2     5.092964     6A2     5.166361    22A1     5.166361
      23A1     5.597227    24A1     6.162021    14B1     6.408167
      14B2     6.408167    25A1     7.970264    26A1    17.398576

    Final Occupation by Irrep:
             A1    A2    B1    B2
    DOCC [     4,    0,    1,    1 ]
    SOCC [     1,    0,    0,    0 ]
    NA   [     5,    0,    1,    1 ]
    NB   [     4,    0,    1,    1 ]

  @DF-UKS Final Energy:   -92.31093434080991

   => Energetics <=

    Nuclear Repulsion Energy =             26.2349266949254627
    One-Electron Energy =                -175.6101220982195628
    Two-Electron Energy =                  67.2993259248270022
    DFT Exchange-Correlation Energy =     -10.2350648623428153
    Empirical Dispersion Energy =           0.0000000000000000
    VV10 Nonlocal Energy =                  0.0000000000000000
    Total Energy =                        -92.3109343408099079

  UHF NO Occupations:
  HONO-2 :    1 B1 1.9990117
  HONO-1 :    1 B2 1.9990117
  HONO-0 :    5 A1 1.0000000
  LUNO+0 :    2 B1 0.0009883
  LUNO+1 :    2 B2 0.0009883
  LUNO+2 :    6 A1 0.0001820
  LUNO+3 :    7 A1 0.0000263

Computation Completed

Properties will be evaluated at   0.000000,   0.000000,   0.000000 [a0]

Properties computed using the B3LYP density matrix

 Multipole Moments:

 ------------------------------------------------------------------------------------
     Multipole            Electronic (a.u.)      Nuclear  (a.u.)        Total (a.u.)
 ------------------------------------------------------------------------------------

 L = 1.  Multiply by 2.5417464519 to convert [e a0] to [Debye]
 Dipole X            :          0.0000000            0.0000000            0.0000000
 Dipole Y            :          0.0000000            0.0000000            0.0000000
 Dipole Z            :          0.8069979            0.0011355            0.8081334
 Magnitude           :                                                    0.8081334

 L = 2.  Multiply by 1.3450342976 to convert [e a0^2] to [Debye ang]
 Quadrupole XX       :         -7.1617756            0.0000000           -7.1617756
 Quadrupole XY       :          0.0000000            0.0000000            0.0000000
 Quadrupole XZ       :          0.0000000            0.0000000            0.0000000
 Quadrupole YY       :         -7.1617756            0.0000000           -7.1617756
 Quadrupole YZ       :          0.0000000            0.0000000            0.0000000
 Quadrupole ZZ       :        -15.9613690            8.2802760           -7.6810930
 Traceless XX        :          2.9331978           -2.7600920            0.1731058
 Traceless YY        :          2.9331978           -2.7600920            0.1731058
 Traceless ZZ        :         -5.8663956            5.5201840           -0.3462116

 ------------------------------------------------------------------------------------
  ==> Computing MBIS Charges <==

  Electron Count from Grid (Expected Number): 13.00000 (13.00000)
  Difference:  0.00000

  MBIS Charges: (a.u.)
   Center  Symbol  Z      Pop.       Charge
      1       N    7    7.498905   -0.498905
      2       C    6    5.501096    0.498904

  MBIS Dipoles: [e a0]
   Center  Symbol  Z        X           Y           Z
      1       N    7   -0.000000   -0.000000   -0.074721
      2       C    6   -0.000000    0.000000    0.084149

  MBIS Quadrupoles: [e a0^2]
   Center  Symbol  Z      XX        XY        XZ        YY        YZ        ZZ
      1       N    7   -4.0839    0.0000   -0.0000   -4.0839    0.0000   -4.6801
      2       C    6   -3.0779    0.0000    0.0000   -3.0779    0.0000   -3.3550

  MBIS Octupoles: [e a0^3]
   Center  Symbol  Z      XXX       XXY       XXZ       XYY       XYZ       XZZ       YYY       YYZ       YZZ       ZZZ
      1       N    7   -0.0000   -0.0000    0.0079   -0.0000    0.0000   -0.0000   -0.0000    0.0079    0.0000    0.4350
      2       C    6   -0.0000   -0.0000   -0.1014   -0.0000   -0.0000    0.0000    0.0000   -0.1014    0.0000   -0.3752

  MBIS Radial Moments:
   Center  Symbol  Z      [a0^2]      [a0^3]      [a0^4]
      1       N    7   12.847851   26.801279   67.252570
      2       C    6    9.510791   20.988602   55.982747

  MBIS Valence Widths: [a0]
   Center  Symbol  Z     Width
      1       N    7    0.427917
      2       C    6    0.453094

*** tstop() called on Mac.lan at Sun Aug 10 17:13:21 2025
Module time:
	user time   =       3.71 seconds =       0.06 minutes
	system time =       2.51 seconds =       0.04 minutes
	total time  =          0 seconds =       0.00 minutes
Total time:
	user time   =      17.50 seconds =       0.29 minutes
	system time =       5.15 seconds =       0.09 minutes
	total time  =          2 seconds =       0.03 minutes

    Psi4 stopped on: Sunday, 10 August 2025 05:13PM
    Psi4 wall time for execution: 0:00:02.19

*** Psi4 exiting successfully. Buy a developer a beer!
