                               Psi4 1.9.1 release

  ==> Input File <==

--------------------------------------------------------------------------
molecule {
0 1
N           0.000000           0.000000           0.000000
N           0.000000           0.000000           1.616945
}

set {
basis              cc-pvtz
reference          uks
maxiter            500
DAMPING_PERCENTAGE 1
E_CONVERGENCE      1.0E-8
D_CONVERGENCE      1.0E-8
DIIS_MAX_VECS      400
MBIS_MAXITER       8000
guess              read
}

E, wfn = energy('b3lyp', restart_file='last_wfn', return_wfn=True)
properties('b3lyp','MBIS_CHARGES', wfn=wfn)
wfn.to_file('last_wfn')
--------------------------------------------------------------------------

    Molecular point group: d2h
  Charge       = 0
  Multiplicity = 1
  Basis Set: CC-PVTZ
    Blend: CC-PVTZ
  Basis Set: (CC-PVTZ AUX)
    Blend: CC-PVTZ-JKFIT
  @DF-UKS Final Energy:  -109.30064181225488
    Total Energy =                       -109.3006418122548808
 Dipole X            :          0.0000000            0.0000000            0.0000000
 Dipole Y            :          0.0000000            0.0000000            0.0000000
 Dipole Z            :          0.0000000            0.0000000            0.0000000
 Magnitude           :                                                    0.0000000
    Molecular point group: d2h

    Geometry (in Angstrom), charge = 0, multiplicity = 1:

       Center              X                  Y                   Z               Mass
    ------------   -----------------  -----------------  -----------------  -----------------
         N            0.000000000000     0.000000000000    -0.808472500000    14.003074004430
         N            0.000000000000     0.000000000000     0.808472500000    14.003074004430

  Charge       = 0
  Multiplicity = 1
  Basis Set: CC-PVTZ
    Blend: CC-PVTZ
  Basis Set: (CC-PVTZ AUX)
    Blend: CC-PVTZ-JKFIT

    Orbital Energies [Eh]
    ---------------------

    Alpha Occupied:

       1Ag   -14.501585     1B1u  -14.501449     2Ag    -0.890487
       2B1u   -0.672537     3Ag    -0.400327     1B3u   -0.360548
       1B2u   -0.360548

    Alpha Virtual:

       1B2g   -0.179040     1B3g   -0.179040     3B1u    0.009769
       4B1u    0.391873     2B2u    0.420126     2B3u    0.420126
       4Ag     0.449414     2B3g    0.499639     2B2g    0.499639
       5Ag     0.505527     5B1u    0.850591     3B3u    0.879111
       3B2u    0.879111     6Ag     0.902832     1B1g    0.902832
       6B1u    1.115540     1Au     1.115540     7Ag     1.358168
       3B2g    1.479354     3B3g    1.479354     7B1u    1.679254
       4B2u    2.677967     4B3u    2.677967     8Ag     2.691338
       4B3g    2.833982     4B2g    2.833982     8B1u    3.344001
       5B2u    3.519773     5B3u    3.519773     9Ag     3.568864
      10Ag     3.614711     2B1g    3.614711     6B3u    3.791469
       6B2u    3.791469     5B2g    3.854481     5B3g    3.854481
       9B1u    4.044020     2Au     4.044021     3B1g    4.316455
      11Ag     4.316456     6B2g    4.329611     6B3g    4.329611
       7B3u    4.446247     7B2u    4.446247     3Au     4.449346
      10B1u    4.449349    11B1u    4.499826    12Ag     4.826164
      12B1u    5.011094     7B2g    5.016086     7B3g    5.016086
      13Ag     5.534290    13B1u    6.785889

    Beta Occupied:

       1Ag   -14.501585     1B1u  -14.501449     2Ag    -0.890487
       2B1u   -0.672537     3Ag    -0.400327     1B3u   -0.360548
       1B2u   -0.360548

    Beta Virtual:

       1B2g   -0.179040     1B3g   -0.179040     3B1u    0.009769
       4B1u    0.391873     2B2u    0.420126     2B3u    0.420126
       4Ag     0.449414     2B3g    0.499639     2B2g    0.499639
       5Ag     0.505527     5B1u    0.850591     3B3u    0.879111
       3B2u    0.879111     6Ag     0.902832     1B1g    0.902832
       6B1u    1.115540     1Au     1.115540     7Ag     1.358168
       3B2g    1.479354     3B3g    1.479354     7B1u    1.679254
       4B2u    2.677967     4B3u    2.677967     8Ag     2.691338
       4B3g    2.833982     4B2g    2.833982     8B1u    3.344001
       5B2u    3.519773     5B3u    3.519773     9Ag     3.568864
      10Ag     3.614711     2B1g    3.614711     6B2u    3.791469
       6B3u    3.791469     5B2g    3.854481     5B3g    3.854481
       9B1u    4.044020     2Au     4.044021     3B1g    4.316455
      11Ag     4.316456     6B2g    4.329611     6B3g    4.329611
       7B3u    4.446247     7B2u    4.446247     3Au     4.449346
      10B1u    4.449349    11B1u    4.499826    12Ag     4.826164
      12B1u    5.011094     7B2g    5.016086     7B3g    5.016086
      13Ag     5.534290    13B1u    6.785889

    Final Occupation by Irrep:
             Ag   B1g   B2g   B3g    Au   B1u   B2u   B3u
    DOCC [     3,    0,    0,    0,    0,    2,    1,    1 ]
    SOCC [     0,    0,    0,    0,    0,    0,    0,    0 ]
    NA   [     3,    0,    0,    0,    0,    2,    1,    1 ]
    NB   [     3,    0,    0,    0,    0,    2,    1,    1 ]

  @DF-UKS Final Energy:  -109.30064181252371

   => Energetics <=

    Nuclear Repulsion Energy =             16.0362185002149147
    One-Electron Energy =                -179.5307261289613621
    Two-Electron Energy =                  64.9734894636449241
    DFT Exchange-Correlation Energy =     -10.7796236474221772
    Empirical Dispersion Energy =           0.0000000000000000
    VV10 Nonlocal Energy =                  0.0000000000000000
    Total Energy =                       -109.3006418125237076

  UHF NO Occupations:
  HONO-2 :    3 Ag 2.0000000
  HONO-1 :    2B1u 2.0000000
  HONO-0 :    1B3u 2.0000000
  LUNO+0 :    4 Ag 0.0000000
  LUNO+1 :    5 Ag 0.0000000
  LUNO+2 :    3B1u 0.0000000
  LUNO+3 :    4B1u 0.0000000

Computation Completed

Properties will be evaluated at   0.000000,   0.000000,   0.000000 [a0]

Properties computed using the B3LYP density matrix

 Multipole Moments:

 ------------------------------------------------------------------------------------
     Multipole            Electronic (a.u.)      Nuclear  (a.u.)        Total (a.u.)
 ------------------------------------------------------------------------------------

 L = 1.  Multiply by 2.5417464519 to convert [e a0] to [Debye]
 Dipole X            :          0.0000000            0.0000000            0.0000000
 Dipole Y            :          0.0000000            0.0000000            0.0000000
 Dipole Z            :          0.0000000            0.0000000            0.0000000
 Magnitude           :                                                    0.0000000

 L = 2.  Multiply by 1.3450342976 to convert [e a0^2] to [Debye ang]
 Quadrupole XX       :         -8.3642649            0.0000000           -8.3642649
 Quadrupole XY       :          0.0000000            0.0000000            0.0000000
 Quadrupole XZ       :          0.0000000            0.0000000            0.0000000
 Quadrupole YY       :         -8.3642649            0.0000000           -8.3642649
 Quadrupole YZ       :          0.0000000            0.0000000            0.0000000
 Quadrupole ZZ       :        -41.0159371           32.6780606           -8.3378764
 Traceless XX        :         10.8838907          -10.8926869           -0.0087961
 Traceless YY        :         10.8838907          -10.8926869           -0.0087961
 Traceless ZZ        :        -21.7677815           21.7853738            0.0175923

 ------------------------------------------------------------------------------------
  ==> Computing MBIS Charges <==

  Electron Count from Grid (Expected Number): 14.00000 (14.00000)
  Difference: -0.00000

  MBIS Charges: (a.u.)
   Center  Symbol  Z      Pop.       Charge
      1       N    7    7.000000    0.000000
      2       N    7    7.000000    0.000000

  MBIS Dipoles: [e a0]
   Center  Symbol  Z        X           Y           Z
      1       N    7   -0.000000    0.000000   -0.072367
      2       N    7    0.000000   -0.000000    0.072367

  MBIS Quadrupoles: [e a0^2]
   Center  Symbol  Z      XX        XY        XZ        YY        YZ        ZZ
      1       N    7   -4.1821   -0.0000    0.0000   -4.1821   -0.0000   -4.3901
      2       N    7   -4.1821   -0.0000   -0.0000   -4.1821    0.0000   -4.3901

  MBIS Octupoles: [e a0^3]
   Center  Symbol  Z      XXX       XXY       XXZ       XYY       XYZ       XZZ       YYY       YYZ       YZZ       ZZZ
      1       N    7   -0.0000   -0.0000   -0.2475    0.0000   -0.0000   -0.0000   -0.0000   -0.2475   -0.0000   -0.5535
      2       N    7   -0.0000   -0.0000    0.2475    0.0000    0.0000   -0.0000   -0.0000    0.2475   -0.0000    0.5535

  MBIS Radial Moments:
   Center  Symbol  Z      [a0^2]      [a0^3]      [a0^4]
      1       N    7   12.754326   27.431052   70.185713
      2       N    7   12.754326   27.431052   70.185713

  MBIS Valence Widths: [a0]
   Center  Symbol  Z     Width
      1       N    7    0.449593
      2       N    7    0.449593

*** tstop() called on Mac.lan at Sun Aug 10 17:07:55 2025
Module time:
	user time   =       3.98 seconds =       0.07 minutes
	system time =       2.39 seconds =       0.04 minutes
	total time  =          1 seconds =       0.02 minutes
Total time:
	user time   =      15.77 seconds =       0.26 minutes
	system time =       4.89 seconds =       0.08 minutes
	total time  =          2 seconds =       0.03 minutes

    Psi4 stopped on: Sunday, 10 August 2025 05:07PM
    Psi4 wall time for execution: 0:00:02.03

*** Psi4 exiting successfully. Buy a developer a beer!
