                               Psi4 1.9.1 release

  ==> Input File <==

--------------------------------------------------------------------------
molecule {
0 2
C           0.000000           0.000000           0.000000
H           0.000000           0.000000           0.756778
}

set {
basis              cc-pvtz
reference          uks
maxiter            500
DAMPING_PERCENTAGE 1
E_CONVERGENCE      1.0E-8
D_CONVERGENCE      1.0E-8
DIIS_MAX_VECS      400
MBIS_MAXITER       8000
guess              read
}

E, wfn = energy('b3lyp', restart_file='last_wfn', return_wfn=True)
properties('b3lyp','MBIS_CHARGES', wfn=wfn)
wfn.to_file('last_wfn')
--------------------------------------------------------------------------

    Molecular point group: c2v
  Charge       = 0
  Multiplicity = 2
  Basis Set: CC-PVTZ
    Blend: CC-PVTZ
  Basis Set: (CC-PVTZ AUX)
    Blend: CC-PVTZ-JKFIT
  @DF-UKS Final Energy:   -38.34360382811268
    Total Energy =                        -38.3436038281126841
 Dipole X            :          0.0000000            0.0000000            0.0000000
 Dipole Y            :          0.0000000            0.0000000            0.0000000
 Dipole Z            :          0.1203845            0.6544888            0.7748733
 Magnitude           :                                                    0.7748733
    Molecular point group: c2v

    Geometry (in Angstrom), charge = 0, multiplicity = 2:

       Center              X                  Y                   Z               Mass
    ------------   -----------------  -----------------  -----------------  -----------------
         C            0.000000000000     0.000000000000    -0.058633923069    12.000000000000
         H            0.000000000000     0.000000000000     0.698144076931     1.007825032230

  Charge       = 0
  Multiplicity = 2
  Basis Set: CC-PVTZ
    Blend: CC-PVTZ
  Basis Set: (CC-PVTZ AUX)
    Blend: CC-PVTZ-JKFIT

    Orbital Energies [Eh]
    ---------------------

    Alpha Occupied:

       1A1   -10.242352     2A1    -0.758518     3A1    -0.325119
       1B1    -0.261540

    Alpha Virtual:

       1B2    -0.149937     4A1     0.074643     5A1     0.283804
       2B1     0.290629     2B2     0.309428     6A1     0.385534
       7A1     0.619232     3B1     0.624180     3B2     0.629211
       1A2     0.654070     8A1     0.660366     9A1     1.014884
       4B1     1.094290     4B2     1.094550    10A1     1.861023
       5B1     1.914523     5B2     1.938277    11A1     1.965773
      12A1     2.225408     2A2     2.581248    13A1     2.585228
       6B1     2.642999     6B2     2.645176     7B1     2.719201
       7B2     2.727561     3A2     2.880096    14A1     2.890293
       8B1     3.026002     8B2     3.027569    15A1     3.055922
      16A1     3.855310     4A2     4.007462    17A1     4.010781
       9B2     4.060713     9B1     4.061764    10B1     5.652554
      10B2     5.655761    18A1     5.661229    19A1     6.193641
      20A1    13.488110

    Beta Occupied:

       1A1   -10.227896     2A1    -0.720008     3A1    -0.299246

    Beta Virtual:

       1B2    -0.133696     1B1    -0.087827     4A1     0.077262
       5A1     0.290212     2B2     0.316565     2B1     0.344010
       6A1     0.400713     3B2     0.632208     7A1     0.632984
       3B1     0.660321     1A2     0.697540     8A1     0.698249
       9A1     1.024890     4B2     1.095491     4B1     1.113611
      10A1     1.882099     5B2     1.950100    11A1     1.975579
       5B1     1.993157    12A1     2.256529     2A2     2.616542
      13A1     2.616975     6B2     2.700208     6B1     2.700767
       7B2     2.731750     7B1     2.769370    14A1     2.947015
       3A2     2.949800     8B2     3.031235     8B1     3.064034
      15A1     3.077040    16A1     3.866271     4A2     4.031081
      17A1     4.032357     9B2     4.061084     9B1     4.082557
      10B2     5.658092    18A1     5.674691    10B1     5.688577
      19A1     6.200289    20A1    13.503457

    Final Occupation by Irrep:
             A1    A2    B1    B2
    DOCC [     3,    0,    0,    0 ]
    SOCC [     0,    0,    1,    0 ]
    NA   [     3,    0,    1,    0 ]
    NB   [     3,    0,    0,    0 ]

  @DF-UKS Final Energy:   -38.34360382897947

   => Energetics <=

    Nuclear Repulsion Energy =              4.1955015394475010
    One-Electron Energy =                 -58.8616654481002186
    Two-Electron Energy =                  21.0088398251669410
    DFT Exchange-Correlation Energy =      -4.6862797454936898
    Empirical Dispersion Energy =           0.0000000000000000
    VV10 Nonlocal Energy =                  0.0000000000000000
    Total Energy =                        -38.3436038289794681

  UHF NO Occupations:
  HONO-2 :    2 A1 1.9999092
  HONO-1 :    3 A1 1.9988115
  HONO-0 :    1 B1 1.0000000
  LUNO+0 :    4 A1 0.0011885
  LUNO+1 :    5 A1 0.0000908
  LUNO+2 :    6 A1 0.0000007
  LUNO+3 :    7 A1 0.0000000

Computation Completed

Properties will be evaluated at   0.000000,   0.000000,   0.000000 [a0]

Properties computed using the B3LYP density matrix

 Multipole Moments:

 ------------------------------------------------------------------------------------
     Multipole            Electronic (a.u.)      Nuclear  (a.u.)        Total (a.u.)
 ------------------------------------------------------------------------------------

 L = 1.  Multiply by 2.5417464519 to convert [e a0] to [Debye]
 Dipole X            :          0.0000000            0.0000000            0.0000000
 Dipole Y            :          0.0000000            0.0000000            0.0000000
 Dipole Z            :          0.1203845            0.6544888            0.7748733
 Magnitude           :                                                    0.7748733

 L = 2.  Multiply by 1.3450342976 to convert [e a0^2] to [Debye ang]
 Quadrupole XX       :         -5.4242170            0.0000000           -5.4242170
 Quadrupole XY       :          0.0000000            0.0000000            0.0000000
 Quadrupole XZ       :          0.0000000            0.0000000            0.0000000
 Quadrupole YY       :         -3.9386631            0.0000000           -3.9386631
 Quadrupole YZ       :          0.0000000            0.0000000            0.0000000
 Quadrupole ZZ       :         -7.2149421            1.8142180           -5.4007242
 Traceless XX        :          0.1017238           -0.6047393           -0.5030155
 Traceless YY        :          1.5872776           -0.6047393            0.9825383
 Traceless ZZ        :         -1.6890014            1.2094786           -0.4795228

 ------------------------------------------------------------------------------------
  ==> Computing MBIS Charges <==

  Electron Count from Grid (Expected Number):  7.00000 ( 7.00000)
  Difference:  0.00000

  MBIS Charges: (a.u.)
   Center  Symbol  Z      Pop.       Charge
      1       C    6    6.145201   -0.145201
      2       H    1    0.854799    0.145201

  MBIS Dipoles: [e a0]
   Center  Symbol  Z        X           Y           Z
      1       C    6   -0.000000    0.000000    0.538866
      2       H    1   -0.000000    0.000000    0.028355

  MBIS Quadrupoles: [e a0^2]
   Center  Symbol  Z      XX        XY        XZ        YY        YZ        ZZ
      1       C    6   -5.1245    0.0000    0.0000   -3.6832    0.0000   -5.3261
      2       H    1   -0.2997   -0.0000   -0.0000   -0.2554    0.0000   -0.2810

  MBIS Octupoles: [e a0^3]
   Center  Symbol  Z      XXX       XXY       XXZ       XYY       XYZ       XZZ       YYY       YYZ       YZZ       ZZZ
      1       C    6   -0.0000    0.0000    0.8766   -0.0000   -0.0000   -0.0000    0.0000    0.9931   -0.0000    2.2611
      2       H    1    0.0000   -0.0000    0.0090    0.0000   -0.0000    0.0000   -0.0000   -0.0027    0.0000    0.0060

  MBIS Radial Moments:
   Center  Symbol  Z      [a0^2]      [a0^3]      [a0^4]
      1       C    6   14.133833   34.896758   102.365537
      2       H    1    0.836121    1.164966    1.947301

  MBIS Valence Widths: [a0]
   Center  Symbol  Z     Width
      1       C    6    0.516869
      2       H    1    0.289620

*** tstop() called on Mac.lan at Sun Aug 10 17:08:54 2025
Module time:
	user time   =       3.05 seconds =       0.05 minutes
	system time =       2.10 seconds =       0.04 minutes
	total time  =          1 seconds =       0.02 minutes
Total time:
	user time   =      11.08 seconds =       0.18 minutes
	system time =       4.45 seconds =       0.07 minutes
	total time  =          2 seconds =       0.03 minutes

    Psi4 stopped on: Sunday, 10 August 2025 05:08PM
    Psi4 wall time for execution: 0:00:01.52

*** Psi4 exiting successfully. Buy a developer a beer!
