                               Psi4 1.9.1 release

  ==> Input File <==

--------------------------------------------------------------------------
molecule {
0 1
O           0.000000           0.000000           0.000000
C           0.000000           0.000000           1.461671
}

set {
basis              cc-pvtz
reference          uks
maxiter            500
DAMPING_PERCENTAGE 1
E_CONVERGENCE      1.0E-8
D_CONVERGENCE      1.0E-8
DIIS_MAX_VECS      400
MBIS_MAXITER       8000
guess              read
}

E, wfn = energy('b3lyp', restart_file='last_wfn', return_wfn=True)
properties('b3lyp','MBIS_CHARGES', wfn=wfn)
wfn.to_file('last_wfn')
--------------------------------------------------------------------------

    Molecular point group: c2v
  Charge       = 0
  Multiplicity = 1
  Basis Set: CC-PVTZ
    Blend: CC-PVTZ
  Basis Set: (CC-PVTZ AUX)
    Blend: CC-PVTZ-JKFIT
  @DF-UKS Final Energy:  -113.23156531476218
    Total Energy =                       -113.2315653147621788
 Dipole X            :          0.0000000            0.0000000            0.0000000
 Dipole Y            :          0.0000000            0.0000000            0.0000000
 Dipole Z            :          0.4151716           -0.0030105            0.4121611
 Magnitude           :                                                    0.4121611
    Molecular point group: c2v

    Geometry (in Angstrom), charge = 0, multiplicity = 1:

       Center              X                  Y                   Z               Mass
    ------------   -----------------  -----------------  -----------------  -----------------
         O            0.000000000000     0.000000000000    -0.626544221990    15.994914619570
         C            0.000000000000     0.000000000000     0.835126778010    12.000000000000

  Charge       = 0
  Multiplicity = 1
  Basis Set: CC-PVTZ
    Blend: CC-PVTZ
  Basis Set: (CC-PVTZ AUX)
    Blend: CC-PVTZ-JKFIT

    Orbital Energies [Eh]
    ---------------------

    Alpha Occupied:

       1A1   -19.237393     2A1   -10.387395     3A1    -1.013911
       4A1    -0.588229     5A1    -0.395128     1B1    -0.391897
       1B2    -0.391897

    Alpha Virtual:

       2B2    -0.131117     2B1    -0.131117     6A1     0.095064
       3B2     0.287114     3B1     0.287114     7A1     0.292144
       8A1     0.313840     9A1     0.543363     4B2     0.613829
       4B1     0.613829     1A2     0.632151    10A1     0.632151
       5B2     0.756515     5B1     0.756515    11A1     1.018566
      12A1     1.195269    13A1     1.463915     2A2     1.463915
       6B2     1.675409     6B1     1.675409    14A1     1.942452
       7B1     1.968266     7B2     1.968266    15A1     2.190960
       8B2     2.615324     8B1     2.615324     3A2     2.666411
      16A1     2.666412     9B1     2.829680     9B2     2.829680
       4A2     2.882112    17A1     2.882114    18A1     2.915519
      10B2     3.099942    10B1     3.099942    19A1     3.175835
      20A1     3.720111    11B1     3.736211    11B2     3.736211
      21A1     5.059282    12B2     5.083117    12B1     5.083117
      22A1     5.181171     5A2     5.181173    13B1     5.523126
      13B2     5.523126    23A1     6.018104     6A2     6.176071
      24A1     6.176110    14B2     6.561273    14B1     6.561273
      25A1     7.204938    26A1     8.579242

    Beta Occupied:

       1A1   -19.237393     2A1   -10.387395     3A1    -1.013911
       4A1    -0.588229     5A1    -0.395128     1B1    -0.391897
       1B2    -0.391897

    Beta Virtual:

       2B2    -0.131117     2B1    -0.131117     6A1     0.095064
       3B2     0.287114     3B1     0.287114     7A1     0.292144
       8A1     0.313840     9A1     0.543363     4B2     0.613829
       4B1     0.613829     1A2     0.632151    10A1     0.632151
       5B2     0.756515     5B1     0.756515    11A1     1.018566
      12A1     1.195269    13A1     1.463915     2A2     1.463915
       6B2     1.675409     6B1     1.675409    14A1     1.942452
       7B1     1.968266     7B2     1.968266    15A1     2.190960
       8B2     2.615324     8B1     2.615324     3A2     2.666411
      16A1     2.666412     9B1     2.829680     9B2     2.829680
       4A2     2.882112    17A1     2.882114    18A1     2.915519
      10B2     3.099942    10B1     3.099942    19A1     3.175835
      20A1     3.720111    11B1     3.736211    11B2     3.736211
      21A1     5.059282    12B2     5.083117    12B1     5.083117
      22A1     5.181171     5A2     5.181173    13B1     5.523126
      13B2     5.523126    23A1     6.018104     6A2     6.176071
      24A1     6.176110    14B2     6.561273    14B1     6.561273
      25A1     7.204938    26A1     8.579242

    Final Occupation by Irrep:
             A1    A2    B1    B2
    DOCC [     5,    0,    1,    1 ]
    SOCC [     0,    0,    0,    0 ]
    NA   [     5,    0,    1,    1 ]
    NB   [     5,    0,    1,    1 ]

  @DF-UKS Final Energy:  -113.23156531475541

   => Energetics <=

    Nuclear Repulsion Energy =             17.3777177710716053
    One-Electron Energy =                -188.4588747339237784
    Two-Electron Energy =                  68.8896639581047765
    DFT Exchange-Correlation Energy =     -11.0400723100080285
    Empirical Dispersion Energy =           0.0000000000000000
    VV10 Nonlocal Energy =                  0.0000000000000000
    Total Energy =                       -113.2315653147554144

  UHF NO Occupations:
  HONO-2 :    3 A1 2.0000000
  HONO-1 :    4 A1 2.0000000
  HONO-0 :    5 A1 2.0000000
  LUNO+0 :    6 A1 0.0000000
  LUNO+1 :    7 A1 0.0000000
  LUNO+2 :    8 A1 0.0000000
  LUNO+3 :    9 A1 0.0000000

Computation Completed

Properties will be evaluated at   0.000000,   0.000000,   0.000000 [a0]

Properties computed using the B3LYP density matrix

 Multipole Moments:

 ------------------------------------------------------------------------------------
     Multipole            Electronic (a.u.)      Nuclear  (a.u.)        Total (a.u.)
 ------------------------------------------------------------------------------------

 L = 1.  Multiply by 2.5417464519 to convert [e a0] to [Debye]
 Dipole X            :          0.0000000            0.0000000            0.0000000
 Dipole Y            :          0.0000000            0.0000000            0.0000000
 Dipole Z            :          0.4151716           -0.0030105            0.4121611
 Magnitude           :                                                    0.4121611

 L = 2.  Multiply by 1.3450342976 to convert [e a0^2] to [Debye ang]
 Quadrupole XX       :         -8.0321006            0.0000000           -8.0321006
 Quadrupole XY       :          0.0000000            0.0000000            0.0000000
 Quadrupole XZ       :          0.0000000            0.0000000            0.0000000
 Quadrupole YY       :         -8.0321006            0.0000000           -8.0321006
 Quadrupole YZ       :          0.0000000            0.0000000            0.0000000
 Quadrupole ZZ       :        -34.9460026           26.1583417           -8.7876610
 Traceless XX        :          8.9713007           -8.7194472            0.2518535
 Traceless YY        :          8.9713007           -8.7194472            0.2518535
 Traceless ZZ        :        -17.9426014           17.4388944           -0.5037069

 ------------------------------------------------------------------------------------
  ==> Computing MBIS Charges <==

  Electron Count from Grid (Expected Number): 14.00000 (14.00000)
  Difference: -0.00000

  MBIS Charges: (a.u.)
   Center  Symbol  Z      Pop.       Charge
      1       O    8    8.270708   -0.270708
      2       C    6    5.729291    0.270709

  MBIS Dipoles: [e a0]
   Center  Symbol  Z        X           Y           Z
      1       O    8   -0.000000   -0.000000   -0.123613
      2       C    6   -0.000000    0.000000   -0.211967

  MBIS Quadrupoles: [e a0^2]
   Center  Symbol  Z      XX        XY        XZ        YY        YZ        ZZ
      1       O    8   -4.0673   -0.0000   -0.0000   -4.0673    0.0000   -4.1128
      2       C    6   -3.9648    0.0000    0.0000   -3.9648    0.0000   -4.5932

  MBIS Octupoles: [e a0^3]
   Center  Symbol  Z      XXX       XXY       XXZ       XYY       XYZ       XZZ       YYY       YYZ       YZZ       ZZZ
      1       O    8   -0.0000   -0.0000   -0.1117   -0.0000    0.0000    0.0000   -0.0000   -0.1117   -0.0000   -0.3915
      2       C    6   -0.0000   -0.0000   -0.0176   -0.0000    0.0000   -0.0000    0.0000   -0.0176    0.0000   -0.2384

  MBIS Radial Moments:
   Center  Symbol  Z      [a0^2]      [a0^3]      [a0^4]
      1       O    8   12.247465   23.425779   53.565710
      2       C    6   12.522809   30.174574   86.243371

  MBIS Valence Widths: [a0]
   Center  Symbol  Z     Width
      1       O    8    0.394277
      2       C    6    0.512895

*** tstop() called on Mac.lan at Sun Aug 10 17:18:36 2025
Module time:
	user time   =       3.99 seconds =       0.07 minutes
	system time =       1.86 seconds =       0.03 minutes
	total time  =          1 seconds =       0.02 minutes
Total time:
	user time   =      18.60 seconds =       0.31 minutes
	system time =       4.16 seconds =       0.07 minutes
	total time  =          3 seconds =       0.05 minutes

    Psi4 stopped on: Sunday, 10 August 2025 05:18PM
    Psi4 wall time for execution: 0:00:02.22

*** Psi4 exiting successfully. Buy a developer a beer!
