                               Psi4 1.9.1 release

  ==> Input File <==

--------------------------------------------------------------------------
molecule {
0 2
C           0.000000           0.000000           0.000000
H           0.000000           0.000000           1.025090
}

set {
basis              cc-pvtz
reference          uks
maxiter            500
DAMPING_PERCENTAGE 1
E_CONVERGENCE      1.0E-8
D_CONVERGENCE      1.0E-8
DIIS_MAX_VECS      400
MBIS_MAXITER       8000
guess              read
}

E, wfn = energy('b3lyp', restart_file='last_wfn', return_wfn=True)
properties('b3lyp','MBIS_CHARGES', wfn=wfn)
wfn.to_file('last_wfn')
--------------------------------------------------------------------------

    Molecular point group: c2v
  Charge       = 0
  Multiplicity = 2
  Basis Set: CC-PVTZ
    Blend: CC-PVTZ
  Basis Set: (CC-PVTZ AUX)
    Blend: CC-PVTZ-JKFIT
  @DF-UKS Final Energy:   -38.49032856139026
    Total Energy =                        -38.4903285613902639
 Dipole X            :          0.0000000            0.0000000            0.0000000
 Dipole Y            :          0.0000000            0.0000000            0.0000000
 Dipole Z            :         -0.2382120            0.8865346            0.6483226
 Magnitude           :                                                    0.6483226
    Molecular point group: c2v

    Geometry (in Angstrom), charge = 0, multiplicity = 2:

       Center              X                  Y                   Z               Mass
    ------------   -----------------  -----------------  -----------------  -----------------
         C            0.000000000000     0.000000000000    -0.079422298480    12.000000000000
         H            0.000000000000     0.000000000000     0.945667701520     1.007825032230

  Charge       = 0
  Multiplicity = 2
  Basis Set: CC-PVTZ
    Blend: CC-PVTZ
  Basis Set: (CC-PVTZ AUX)
    Blend: CC-PVTZ-JKFIT

    Orbital Energies [Eh]
    ---------------------

    Alpha Occupied:

       1A1   -10.269709     2A1    -0.674491     3A1    -0.324328
       1B1    -0.258893

    Alpha Virtual:

       1B2    -0.147379     4A1     0.067085     5A1     0.285110
       2B1     0.292435     2B2     0.311947     6A1     0.353301
       7A1     0.473434     3B1     0.581386     3B2     0.585269
       1A2     0.654971     8A1     0.660751     9A1     0.969209
       4B1     1.048791     4B2     1.048989    10A1     1.512605
       5B1     1.938736     5B2     1.964498    11A1     1.981057
      12A1     2.163810     2A2     2.523301    13A1     2.526935
       6B1     2.640815     7B1     2.642657     6B2     2.644185
       7B2     2.649127     3A2     2.903218    14A1     2.912483
      15A1     2.959218     8B1     3.049346     8B2     3.054779
      16A1     3.388617     4A2     3.652666    17A1     3.654770
       9B2     3.844638     9B1     3.847030    18A1     4.766627
      10B1     4.915152    10B2     4.917220    19A1     4.997393
      20A1     9.137329

    Beta Occupied:

       1A1   -10.255158     2A1    -0.633804     3A1    -0.302222

    Beta Virtual:

       1B2    -0.131328     1B1    -0.085634     4A1     0.071095
       5A1     0.292139     2B2     0.319330     2B1     0.347568
       6A1     0.366901     7A1     0.486628     3B2     0.587260
       3B1     0.611803     8A1     0.698336     1A2     0.698499
       9A1     0.981479     4B2     1.050405     4B1     1.069774
      10A1     1.527317     5B2     1.976343    11A1     1.990760
       5B1     2.020413    12A1     2.183460     2A2     2.553975
      13A1     2.554395     6B2     2.651142     6B1     2.684294
       7B2     2.701079     7B1     2.702779    14A1     2.956576
       3A2     2.979062    15A1     3.000105     8B2     3.058674
       8B1     3.095333    16A1     3.401336     4A2     3.667251
      17A1     3.667847     9B2     3.841947     9B1     3.854045
      18A1     4.774642    10B2     4.918762    10B1     4.944532
      19A1     5.004638    20A1     9.153097

    Final Occupation by Irrep:
             A1    A2    B1    B2
    DOCC [     3,    0,    0,    0 ]
    SOCC [     0,    0,    1,    0 ]
    NA   [     3,    0,    1,    0 ]
    NB   [     3,    0,    0,    0 ]

  @DF-UKS Final Energy:   -38.49032856105038

   => Energetics <=

    Nuclear Repulsion Energy =              3.0973507341013957
    One-Electron Energy =                 -57.1516436890639099
    Two-Electron Energy =                  20.1419076905649419
    DFT Exchange-Correlation Energy =      -4.5779432966528066
    Empirical Dispersion Energy =           0.0000000000000000
    VV10 Nonlocal Energy =                  0.0000000000000000
    Total Energy =                        -38.4903285610503758

  UHF NO Occupations:
  HONO-2 :    2 A1 1.9998704
  HONO-1 :    3 A1 1.9987126
  HONO-0 :    1 B1 1.0000000
  LUNO+0 :    4 A1 0.0012874
  LUNO+1 :    5 A1 0.0001296
  LUNO+2 :    6 A1 0.0000007
  LUNO+3 :    2 B1 0.0000000

Computation Completed

Properties will be evaluated at   0.000000,   0.000000,   0.000000 [a0]

Properties computed using the B3LYP density matrix

 Multipole Moments:

 ------------------------------------------------------------------------------------
     Multipole            Electronic (a.u.)      Nuclear  (a.u.)        Total (a.u.)
 ------------------------------------------------------------------------------------

 L = 1.  Multiply by 2.5417464519 to convert [e a0] to [Debye]
 Dipole X            :          0.0000000            0.0000000            0.0000000
 Dipole Y            :          0.0000000            0.0000000            0.0000000
 Dipole Z            :         -0.2382120            0.8865346            0.6483226
 Magnitude           :                                                    0.6483226

 L = 2.  Multiply by 1.3450342976 to convert [e a0^2] to [Debye ang]
 Quadrupole XX       :         -5.6333557            0.0000000           -5.6333557
 Quadrupole XY       :          0.0000000            0.0000000            0.0000000
 Quadrupole XZ       :          0.0000000            0.0000000            0.0000000
 Quadrupole YY       :         -4.1328720            0.0000000           -4.1328720
 Quadrupole YZ       :          0.0000000            0.0000000            0.0000000
 Quadrupole ZZ       :         -8.8419142            3.3287138           -5.5132004
 Traceless XX        :          0.5693582           -1.1095713           -0.5402130
 Traceless YY        :          2.0698420           -1.1095713            0.9602707
 Traceless ZZ        :         -2.6392003            2.2191426           -0.4200577

 ------------------------------------------------------------------------------------
  ==> Computing MBIS Charges <==

  Electron Count from Grid (Expected Number):  7.00000 ( 7.00000)
  Difference: -0.00000

  MBIS Charges: (a.u.)
   Center  Symbol  Z      Pop.       Charge
      1       C    6    6.114649   -0.114649
      2       H    1    0.885351    0.114649

  MBIS Dipoles: [e a0]
   Center  Symbol  Z        X           Y           Z
      1       C    6   -0.000000    0.000000    0.383167
      2       H    1    0.000000   -0.000000    0.043063

  MBIS Quadrupoles: [e a0^2]
   Center  Symbol  Z      XX        XY        XZ        YY        YZ        ZZ
      1       C    6   -5.1601    0.0000    0.0000   -3.7230   -0.0000   -5.4501
      2       H    1   -0.4733    0.0000    0.0000   -0.4099    0.0000   -0.4655

  MBIS Octupoles: [e a0^3]
   Center  Symbol  Z      XXX       XXY       XXZ       XYY       XYZ       XZZ       YYY       YYZ       YZZ       ZZZ
      1       C    6   -0.0000    0.0000    0.5552   -0.0000   -0.0000    0.0000    0.0000    0.6114   -0.0000    1.1134
      2       H    1   -0.0000   -0.0000    0.0061    0.0000    0.0000    0.0000   -0.0000   -0.0218    0.0000   -0.0183

  MBIS Radial Moments:
   Center  Symbol  Z      [a0^2]      [a0^3]      [a0^4]
      1       C    6   14.333257   35.796541   106.739835
      2       H    1    1.348625    2.375314    5.040256

  MBIS Valence Widths: [a0]
   Center  Symbol  Z     Width
      1       C    6    0.522656
      2       H    1    0.359492

*** tstop() called on Mac.lan at Sun Aug 10 17:08:29 2025
Module time:
	user time   =       2.79 seconds =       0.05 minutes
	system time =       2.15 seconds =       0.04 minutes
	total time  =          1 seconds =       0.02 minutes
Total time:
	user time   =      10.89 seconds =       0.18 minutes
	system time =       4.62 seconds =       0.08 minutes
	total time  =          2 seconds =       0.03 minutes

    Psi4 stopped on: Sunday, 10 August 2025 05:08PM
    Psi4 wall time for execution: 0:00:01.52

*** Psi4 exiting successfully. Buy a developer a beer!
