                               Psi4 1.9.1 release

  ==> Input File <==

--------------------------------------------------------------------------
molecule {
0 2
C           0.000000           0.000000           0.000000
H           0.000000           0.000000           0.674220
}

set {
basis              cc-pvtz
reference          uks
maxiter            500
DAMPING_PERCENTAGE 1
E_CONVERGENCE      1.0E-8
D_CONVERGENCE      1.0E-8
DIIS_MAX_VECS      400
MBIS_MAXITER       8000
guess              read
}

E, wfn = energy('b3lyp', restart_file='last_wfn', return_wfn=True)
properties('b3lyp','MBIS_CHARGES', wfn=wfn)
wfn.to_file('last_wfn')
--------------------------------------------------------------------------

    Molecular point group: c2v
  Charge       = 0
  Multiplicity = 2
  Basis Set: CC-PVTZ
    Blend: CC-PVTZ
  Basis Set: (CC-PVTZ AUX)
    Blend: CC-PVTZ-JKFIT
  @DF-UKS Final Energy:   -38.21068065986944
    Total Energy =                        -38.2106806598694391
 Dipole X            :          0.0000000            0.0000000            0.0000000
 Dipole Y            :          0.0000000            0.0000000            0.0000000
 Dipole Z            :          0.2082866            0.5830896            0.7913763
 Magnitude           :                                                    0.7913763
    Molecular point group: c2v

    Geometry (in Angstrom), charge = 0, multiplicity = 2:

       Center              X                  Y                   Z               Mass
    ------------   -----------------  -----------------  -----------------  -----------------
         C            0.000000000000     0.000000000000    -0.052237464107    12.000000000000
         H            0.000000000000     0.000000000000     0.621982535893     1.007825032230

  Charge       = 0
  Multiplicity = 2
  Basis Set: CC-PVTZ
    Blend: CC-PVTZ
  Basis Set: (CC-PVTZ AUX)
    Blend: CC-PVTZ-JKFIT

    Orbital Energies [Eh]
    ---------------------

    Alpha Occupied:

       1A1   -10.241681     2A1    -0.786481     3A1    -0.326929
       1B1    -0.264017

    Alpha Virtual:

       1B2    -0.151931     4A1     0.073962     5A1     0.278934
       2B1     0.288734     2B2     0.307263     6A1     0.408228
       3B1     0.636527     3B2     0.641670     1A2     0.653980
       7A1     0.655998     8A1     0.666268     9A1     1.027476
       4B1     1.109977     4B2     1.110364    10A1     1.841521
       5B1     1.888473     5B2     1.911457    11A1     2.061696
      12A1     2.327229     2A2     2.604729    13A1     2.608845
       6B1     2.642805     6B2     2.644951     7B1     2.732295
       7B2     2.740461     3A2     2.862070    14A1     2.872134
       8B1     3.054459     8B2     3.055679    15A1     3.087220
      16A1     3.978758     4A2     4.146098    17A1     4.149826
       9B2     4.172523     9B1     4.172852    18A1     5.732660
      10B1     5.900588    10B2     5.903801    19A1     6.944117
      20A1    15.136835

    Beta Occupied:

       1A1   -10.227075     2A1    -0.747956     3A1    -0.300085

    Beta Virtual:

       1B2    -0.135525     1B1    -0.089301     4A1     0.076626
       5A1     0.285206     2B2     0.314343     2B1     0.341614
       6A1     0.423618     3B2     0.644810     3B1     0.673537
       7A1     0.674329     1A2     0.697361     8A1     0.699820
       9A1     1.036259     4B2     1.111023     4B1     1.128702
      10A1     1.863293     5B2     1.923248     5B1     1.966188
      11A1     2.071544    12A1     2.362606     2A2     2.641429
      13A1     2.641800     6B2     2.700004     6B1     2.700494
       7B2     2.744724     7B1     2.783208    14A1     2.928723
       3A2     2.930195     8B2     3.059801     8B1     3.092910
      15A1     3.106697    16A1     3.990106     4A2     4.172726
       9B2     4.173880    17A1     4.174004     9B1     4.198604
      18A1     5.747939    10B2     5.906274    10B1     5.937810
      19A1     6.950102    20A1    15.152842

    Final Occupation by Irrep:
             A1    A2    B1    B2
    DOCC [     3,    0,    0,    0 ]
    SOCC [     0,    0,    1,    0 ]
    NA   [     3,    0,    1,    0 ]
    NB   [     3,    0,    0,    0 ]

  @DF-UKS Final Energy:   -38.21068066053306

   => Energetics <=

    Nuclear Repulsion Energy =              4.7092392157159386
    One-Electron Energy =                 -59.5334838293243962
    Two-Electron Energy =                  21.3424695679854430
    DFT Exchange-Correlation Energy =      -4.7289056149100404
    Empirical Dispersion Energy =           0.0000000000000000
    VV10 Nonlocal Energy =                  0.0000000000000000
    Total Energy =                        -38.2106806605330505

  UHF NO Occupations:
  HONO-2 :    2 A1 1.9999142
  HONO-1 :    3 A1 1.9988310
  HONO-0 :    1 B1 1.0000000
  LUNO+0 :    4 A1 0.0011690
  LUNO+1 :    5 A1 0.0000858
  LUNO+2 :    6 A1 0.0000007
  LUNO+3 :    7 A1 0.0000000

Computation Completed

Properties will be evaluated at   0.000000,   0.000000,   0.000000 [a0]

Properties computed using the B3LYP density matrix

 Multipole Moments:

 ------------------------------------------------------------------------------------
     Multipole            Electronic (a.u.)      Nuclear  (a.u.)        Total (a.u.)
 ------------------------------------------------------------------------------------

 L = 1.  Multiply by 2.5417464519 to convert [e a0] to [Debye]
 Dipole X            :          0.0000000            0.0000000            0.0000000
 Dipole Y            :          0.0000000            0.0000000            0.0000000
 Dipole Z            :          0.2082866            0.5830896            0.7913763
 Magnitude           :                                                    0.7913763

 L = 2.  Multiply by 1.3450342976 to convert [e a0^2] to [Debye ang]
 Quadrupole XX       :         -5.3543795            0.0000000           -5.3543795
 Quadrupole XY       :          0.0000000            0.0000000            0.0000000
 Quadrupole XZ       :          0.0000000            0.0000000            0.0000000
 Quadrupole YY       :         -3.8839908            0.0000000           -3.8839908
 Quadrupole YZ       :          0.0000000            0.0000000            0.0000000
 Quadrupole ZZ       :         -6.7972517            1.4399776           -5.3572741
 Traceless XX        :         -0.0091722           -0.4799925           -0.4891647
 Traceless YY        :          1.4612165           -0.4799925            0.9812240
 Traceless ZZ        :         -1.4520443            0.9599851           -0.4920593

 ------------------------------------------------------------------------------------
  ==> Computing MBIS Charges <==

  Electron Count from Grid (Expected Number):  7.00000 ( 7.00000)
  Difference:  0.00000

  MBIS Charges: (a.u.)
   Center  Symbol  Z      Pop.       Charge
      1       C    6    6.135816   -0.135816
      2       H    1    0.864184    0.135816

  MBIS Dipoles: [e a0]
   Center  Symbol  Z        X           Y           Z
      1       C    6    0.000000    0.000000    0.597250
      2       H    1    0.000000    0.000000    0.021085

  MBIS Quadrupoles: [e a0^2]
   Center  Symbol  Z      XX        XY        XZ        YY        YZ        ZZ
      1       C    6   -5.0869    0.0000    0.0000   -3.6568    0.0000   -5.2283
      2       H    1   -0.2675   -0.0000   -0.0000   -0.2272    0.0000   -0.2469

  MBIS Octupoles: [e a0^3]
   Center  Symbol  Z      XXX       XXY       XXZ       XYY       XYZ       XZZ       YYY       YYZ       YZZ       ZZZ
      1       C    6   -0.0000    0.0000    0.9770   -0.0000   -0.0000   -0.0000    0.0000    1.1016   -0.0000    2.6655
      2       H    1   -0.0000    0.0000    0.0078   -0.0000   -0.0000   -0.0000    0.0000   -0.0016   -0.0000    0.0068

  MBIS Radial Moments:
   Center  Symbol  Z      [a0^2]      [a0^3]      [a0^4]
      1       C    6   13.971964   34.359436   100.406727
      2       H    1    0.741638    0.966409    1.510314

  MBIS Valence Widths: [a0]
   Center  Symbol  Z     Width
      1       C    6    0.514380
      2       H    1    0.271466

*** tstop() called on Mac.lan at Sun Aug 10 17:09:02 2025
Module time:
	user time   =       2.80 seconds =       0.05 minutes
	system time =       2.45 seconds =       0.04 minutes
	total time  =          1 seconds =       0.02 minutes
Total time:
	user time   =      12.23 seconds =       0.20 minutes
	system time =       4.95 seconds =       0.08 minutes
	total time  =          2 seconds =       0.03 minutes

    Psi4 stopped on: Sunday, 10 August 2025 05:09PM
    Psi4 wall time for execution: 0:00:01.72

*** Psi4 exiting successfully. Buy a developer a beer!
