                               Psi4 1.9.1 release

  ==> Input File <==

--------------------------------------------------------------------------
molecule {
0 2
N           0.000000           0.000000           0.000000
C           0.000000           0.000000           1.295672
}

set {
basis              cc-pvtz
reference          uks
maxiter            500
DAMPING_PERCENTAGE 1
E_CONVERGENCE      1.0E-8
D_CONVERGENCE      1.0E-8
DIIS_MAX_VECS      400
MBIS_MAXITER       8000
guess              read
}

E, wfn = energy('b3lyp', restart_file='last_wfn', return_wfn=True)
properties('b3lyp','MBIS_CHARGES', wfn=wfn)
wfn.to_file('last_wfn')
--------------------------------------------------------------------------

    Molecular point group: c2v
  Charge       = 0
  Multiplicity = 2
  Basis Set: CC-PVTZ
    Blend: CC-PVTZ
  Basis Set: (CC-PVTZ AUX)
    Blend: CC-PVTZ-JKFIT
  @DF-UKS Final Energy:   -92.71902286026427
    Total Energy =                        -92.7190228602642748
 Dipole X            :          0.0000000            0.0000000            0.0000000
 Dipole Y            :          0.0000000            0.0000000            0.0000000
 Dipole Z            :          0.4435071            0.0017367            0.4452438
 Magnitude           :                                                    0.4452438
    Molecular point group: c2v

    Geometry (in Angstrom), charge = 0, multiplicity = 2:

       Center              X                  Y                   Z               Mass
    ------------   -----------------  -----------------  -----------------  -----------------
         N            0.000000000000     0.000000000000    -0.597931767504    14.003074004430
         C            0.000000000000     0.000000000000     0.697740232496    12.000000000000

  Charge       = 0
  Multiplicity = 2
  Basis Set: CC-PVTZ
    Blend: CC-PVTZ
  Basis Set: (CC-PVTZ AUX)
    Blend: CC-PVTZ-JKFIT

    Orbital Energies [Eh]
    ---------------------

    Alpha Occupied:

       1A1   -14.421531     2A1   -10.329876     3A1    -0.921251
       4A1    -0.530417     5A1    -0.412705     1B1    -0.370669
       1B2    -0.370669

    Alpha Virtual:

       2B2    -0.061694     2B1    -0.061694     6A1     0.161178
       7A1     0.278782     3B1     0.286394     3B2     0.286394
       8A1     0.422438     9A1     0.456817     4B2     0.506661
       4B1     0.506661     1A2     0.622466    10A1     0.622466
       5B1     0.774551     5B2     0.774551    11A1     0.869041
       2A2     1.123911    12A1     1.123911    13A1     1.140014
       6B2     1.451121     6B1     1.451121    14A1     1.679408
       7B2     1.967881     7B1     1.967881    15A1     2.136718
       8B1     2.623168     8B2     2.623168    16A1     2.655216
       3A2     2.655216     9B2     2.695291     9B1     2.695291
      17A1     2.804761    10B2     2.890397    10B1     2.890397
       4A2     2.905072    18A1     2.905073    19A1     2.991167
      11B1     3.312594    11B2     3.312594    20A1     3.548750
      12B2     3.890948    12B1     3.890948     5A2     4.224132
      21A1     4.224132    22A1     4.484828     6A2     4.484831
      13B1     4.674005    13B2     4.674005    23A1     4.718448
      24A1     5.201822    14B1     5.205687    14B2     5.205687
      25A1     5.402005    26A1    10.261014

    Beta Occupied:

       1A1   -14.415390     2A1   -10.315948     3A1    -0.896136
       4A1    -0.462545     1B1    -0.362984     1B2    -0.362984

    Beta Virtual:

       5A1    -0.255557     2B2    -0.042056     2B1    -0.042056
       6A1     0.169494     3B1     0.294554     3B2     0.294554
       7A1     0.314560     8A1     0.433614     4B2     0.507732
       4B1     0.507732     9A1     0.509122     1A2     0.631161
      10A1     0.631161     5B1     0.803606     5B2     0.803606
      11A1     0.881962     2A2     1.125282    12A1     1.125282
      13A1     1.174986     6B2     1.471473     6B1     1.471473
      14A1     1.706933     7B2     1.980999     7B1     1.980999
      15A1     2.186338     8B1     2.636877     8B2     2.636877
       3A2     2.675706    16A1     2.675706     9B2     2.717207
       9B1     2.717207    17A1     2.849967    10B2     2.929606
      10B1     2.929606     4A2     2.934368    18A1     2.934369
      19A1     3.057777    11B1     3.351584    11B2     3.351584
      20A1     3.590790    12B2     3.885759    12B1     3.885759
       5A2     4.231369    21A1     4.231369    22A1     4.486864
       6A2     4.486867    13B1     4.703773    13B2     4.703773
      23A1     4.761312    14B1     5.233962    14B2     5.233962
      24A1     5.246847    25A1     5.411830    26A1    10.279602

    Final Occupation by Irrep:
             A1    A2    B1    B2
    DOCC [     4,    0,    1,    1 ]
    SOCC [     1,    0,    0,    0 ]
    NA   [     5,    0,    1,    1 ]
    NB   [     4,    0,    1,    1 ]

  @DF-UKS Final Energy:   -92.71902286026068

   => Energetics <=

    Nuclear Repulsion Energy =             17.1536028008168770
    One-Electron Energy =                -158.5567849645605634
    Two-Electron Energy =                  58.4213693794779658
    DFT Exchange-Correlation Energy =      -9.7372100759949642
    Empirical Dispersion Energy =           0.0000000000000000
    VV10 Nonlocal Energy =                  0.0000000000000000
    Total Energy =                        -92.7190228602606794

  UHF NO Occupations:
  HONO-2 :    1 B2 1.9986138
  HONO-1 :    4 A1 1.9981930
  HONO-0 :    5 A1 1.0000000
  LUNO+0 :    6 A1 0.0018070
  LUNO+1 :    2 B2 0.0013862
  LUNO+2 :    2 B1 0.0013862
  LUNO+3 :    7 A1 0.0001445

Computation Completed

Properties will be evaluated at   0.000000,   0.000000,   0.000000 [a0]

Properties computed using the B3LYP density matrix

 Multipole Moments:

 ------------------------------------------------------------------------------------
     Multipole            Electronic (a.u.)      Nuclear  (a.u.)        Total (a.u.)
 ------------------------------------------------------------------------------------

 L = 1.  Multiply by 2.5417464519 to convert [e a0] to [Debye]
 Dipole X            :          0.0000000            0.0000000            0.0000000
 Dipole Y            :          0.0000000            0.0000000            0.0000000
 Dipole Z            :          0.4435072            0.0017367            0.4452439
 Magnitude           :                                                    0.4452439

 L = 2.  Multiply by 1.3450342976 to convert [e a0^2] to [Debye ang]
 Quadrupole XX       :         -8.4600303            0.0000000           -8.4600303
 Quadrupole XY       :          0.0000000            0.0000000            0.0000000
 Quadrupole XZ       :          0.0000000            0.0000000            0.0000000
 Quadrupole YY       :         -8.4600303            0.0000000           -8.4600303
 Quadrupole YZ       :          0.0000000            0.0000000            0.0000000
 Quadrupole ZZ       :        -27.0448124           19.3684035           -7.6764089
 Traceless XX        :          6.1949274           -6.4561345           -0.2612071
 Traceless YY        :          6.1949274           -6.4561345           -0.2612071
 Traceless ZZ        :        -12.3898547           12.9122690            0.5224143

 ------------------------------------------------------------------------------------
  ==> Computing MBIS Charges <==

  Electron Count from Grid (Expected Number): 13.00000 (13.00000)
  Difference:  0.00000

  MBIS Charges: (a.u.)
   Center  Symbol  Z      Pop.       Charge
      1       N    7    7.207327   -0.207327
      2       C    6    5.792673    0.207327

  MBIS Dipoles: [e a0]
   Center  Symbol  Z        X           Y           Z
      1       N    7    0.000000   -0.000000   -0.217384
      2       C    6   -0.000000   -0.000000    0.154996

  MBIS Quadrupoles: [e a0^2]
   Center  Symbol  Z      XX        XY        XZ        YY        YZ        ZZ
      1       N    7   -4.3595   -0.0000   -0.0000   -4.3595    0.0000   -4.4647
      2       C    6   -4.1005    0.0000   -0.0000   -4.1005    0.0000   -4.2074

  MBIS Octupoles: [e a0^3]
   Center  Symbol  Z      XXX       XXY       XXZ       XYY       XYZ       XZZ       YYY       YYZ       YZZ       ZZZ
      1       N    7    0.0000   -0.0000   -0.3089    0.0000    0.0000   -0.0000   -0.0000   -0.3089    0.0000   -0.7122
      2       C    6   -0.0000   -0.0000    0.2516   -0.0000   -0.0000    0.0000    0.0000    0.2516    0.0000    0.4957

  MBIS Radial Moments:
   Center  Symbol  Z      [a0^2]      [a0^3]      [a0^4]
      1       N    7   13.183754   28.277385   72.327113
      2       C    6   12.408453   29.637798   84.248744

  MBIS Valence Widths: [a0]
   Center  Symbol  Z     Width
      1       N    7    0.448097
      2       C    6    0.505390

*** tstop() called on Mac.lan at Sun Aug 10 17:14:00 2025
Module time:
	user time   =       3.42 seconds =       0.06 minutes
	system time =       2.47 seconds =       0.04 minutes
	total time  =          0 seconds =       0.00 minutes
Total time:
	user time   =      22.89 seconds =       0.38 minutes
	system time =       5.24 seconds =       0.09 minutes
	total time  =          2 seconds =       0.03 minutes

    Psi4 stopped on: Sunday, 10 August 2025 05:14PM
    Psi4 wall time for execution: 0:00:02.73

*** Psi4 exiting successfully. Buy a developer a beer!
