                               Psi4 1.9.1 release

  ==> Input File <==

--------------------------------------------------------------------------
molecule {
0 2
C           0.000000           0.000000           0.000000
H           0.000000           0.000000           0.983811
}

set {
basis              cc-pvtz
reference          uks
maxiter            500
DAMPING_PERCENTAGE 1
E_CONVERGENCE      1.0E-8
D_CONVERGENCE      1.0E-8
DIIS_MAX_VECS      400
MBIS_MAXITER       8000
guess              read
}

E, wfn = energy('b3lyp', restart_file='last_wfn', return_wfn=True)
properties('b3lyp','MBIS_CHARGES', wfn=wfn)
wfn.to_file('last_wfn')
--------------------------------------------------------------------------

    Molecular point group: c2v
  Charge       = 0
  Multiplicity = 2
  Basis Set: CC-PVTZ
    Blend: CC-PVTZ
  Basis Set: (CC-PVTZ AUX)
    Blend: CC-PVTZ-JKFIT
  @DF-UKS Final Energy:   -38.48323841311713
    Total Energy =                        -38.4832384131171281
 Dipole X            :          0.0000000            0.0000000            0.0000000
 Dipole Y            :          0.0000000            0.0000000            0.0000000
 Dipole Z            :         -0.1770084            0.8508350            0.6738266
 Magnitude           :                                                    0.6738266
    Molecular point group: c2v

    Geometry (in Angstrom), charge = 0, multiplicity = 2:

       Center              X                  Y                   Z               Mass
    ------------   -----------------  -----------------  -----------------  -----------------
         C            0.000000000000     0.000000000000    -0.076224068999    12.000000000000
         H            0.000000000000     0.000000000000     0.907586931001     1.007825032230

  Charge       = 0
  Multiplicity = 2
  Basis Set: CC-PVTZ
    Blend: CC-PVTZ
  Basis Set: (CC-PVTZ AUX)
    Blend: CC-PVTZ-JKFIT

    Orbital Energies [Eh]
    ---------------------

    Alpha Occupied:

       1A1   -10.264759     2A1    -0.685757     3A1    -0.324287
       1B1    -0.258828

    Alpha Virtual:

       1B2    -0.147416     4A1     0.069675     5A1     0.285864
       2B1     0.292554     2B2     0.311982     6A1     0.355063
       7A1     0.491880     3B1     0.587480     3B2     0.591580
       1A2     0.654881     8A1     0.660682     9A1     0.976495
       4B1     1.057079     4B2     1.057249    10A1     1.577287
       5B1     1.940545    11A1     1.953396     5B2     1.966103
      12A1     2.160496     2A2     2.527859    13A1     2.531508
       6B1     2.642908     6B2     2.645043     7B1     2.653720
       7B2     2.661690     3A2     2.902648    14A1     2.912644
      15A1     2.977783     8B1     3.044616     8B2     3.049113
      16A1     3.463070     4A2     3.699488    17A1     3.701759
       9B2     3.868927     9B1     3.871218    18A1     4.903775
      10B1     5.024852    10B2     5.027213    19A1     5.132635
      20A1     9.698960

    Beta Occupied:

       1A1   -10.250259     2A1    -0.645628     3A1    -0.301508

    Beta Virtual:

       1B2    -0.131361     1B1    -0.085718     4A1     0.073298
       5A1     0.292853     2B2     0.319332     2B1     0.347441
       6A1     0.369169     7A1     0.504938     3B2     0.593761
       3B1     0.618950     8A1     0.698308     1A2     0.698411
       9A1     0.988516     4B2     1.058636     4B1     1.077879
      10A1     1.593106    11A1     1.963952     5B2     1.978020
       5B1     2.022027    12A1     2.181047     2A2     2.559002
      13A1     2.559448     6B2     2.664299     6B1     2.695530
       7B2     2.701341     7B1     2.705524    14A1     2.963676
       3A2     2.977687    15A1     3.010813     8B2     3.052837
       8B1     3.088542    16A1     3.475425     4A2     3.715364
      17A1     3.716064     9B2     3.866672     9B1     3.879996
      18A1     4.912238    10B2     5.028952    10B1     5.055603
      19A1     5.140169    20A1     9.714293

    Final Occupation by Irrep:
             A1    A2    B1    B2
    DOCC [     3,    0,    0,    0 ]
    SOCC [     0,    0,    1,    0 ]
    NA   [     3,    0,    1,    0 ]
    NB   [     3,    0,    0,    0 ]

  @DF-UKS Final Energy:   -38.48323841286859

   => Energetics <=

    Nuclear Repulsion Energy =              3.2273101886642861
    One-Electron Energy =                 -57.3751082751456494
    Two-Electron Energy =                  20.2564454884049105
    DFT Exchange-Correlation Energy =      -4.5918858147921373
    Empirical Dispersion Energy =           0.0000000000000000
    VV10 Nonlocal Energy =                  0.0000000000000000
    Total Energy =                        -38.4832384128685874

  UHF NO Occupations:
  HONO-2 :    2 A1 1.9998801
  HONO-1 :    3 A1 1.9987288
  HONO-0 :    1 B1 1.0000000
  LUNO+0 :    4 A1 0.0012712
  LUNO+1 :    5 A1 0.0001199
  LUNO+2 :    6 A1 0.0000007
  LUNO+3 :    7 A1 0.0000000

Computation Completed

Properties will be evaluated at   0.000000,   0.000000,   0.000000 [a0]

Properties computed using the B3LYP density matrix

 Multipole Moments:

 ------------------------------------------------------------------------------------
     Multipole            Electronic (a.u.)      Nuclear  (a.u.)        Total (a.u.)
 ------------------------------------------------------------------------------------

 L = 1.  Multiply by 2.5417464519 to convert [e a0] to [Debye]
 Dipole X            :          0.0000000            0.0000000            0.0000000
 Dipole Y            :          0.0000000            0.0000000            0.0000000
 Dipole Z            :         -0.1770084            0.8508350            0.6738266
 Magnitude           :                                                    0.6738266

 L = 2.  Multiply by 1.3450342976 to convert [e a0^2] to [Debye ang]
 Quadrupole XX       :         -5.6028873            0.0000000           -5.6028873
 Quadrupole XY       :          0.0000000            0.0000000            0.0000000
 Quadrupole XZ       :          0.0000000            0.0000000            0.0000000
 Quadrupole YY       :         -4.1019548            0.0000000           -4.1019548
 Quadrupole YZ       :          0.0000000            0.0000000            0.0000000
 Quadrupole ZZ       :         -8.5625068            3.0660259           -5.4964810
 Traceless XX        :          0.4862290           -1.0220086           -0.5357796
 Traceless YY        :          1.9871615           -1.0220086            0.9651529
 Traceless ZZ        :         -2.4733905            2.0440173           -0.4293733

 ------------------------------------------------------------------------------------
  ==> Computing MBIS Charges <==

  Electron Count from Grid (Expected Number):  7.00000 ( 7.00000)
  Difference: -0.00000

  MBIS Charges: (a.u.)
   Center  Symbol  Z      Pop.       Charge
      1       C    6    6.123753   -0.123753
      2       H    1    0.876247    0.123753

  MBIS Dipoles: [e a0]
   Center  Symbol  Z        X           Y           Z
      1       C    6   -0.000000   -0.000000    0.402627
      2       H    1   -0.000000   -0.000000    0.041127

  MBIS Quadrupoles: [e a0^2]
   Center  Symbol  Z      XX        XY        XZ        YY        YZ        ZZ
      1       C    6   -5.1628    0.0000    0.0000   -3.7222   -0.0000   -5.4525
      2       H    1   -0.4401   -0.0000    0.0000   -0.3798    0.0000   -0.4306

  MBIS Octupoles: [e a0^3]
   Center  Symbol  Z      XXX       XXY       XXZ       XYY       XYZ       XZZ       YYY       YYZ       YZZ       ZZZ
      1       C    6   -0.0000    0.0000    0.5978   -0.0000   -0.0000    0.0000    0.0000    0.6656   -0.0000    1.2423
      2       H    1   -0.0000    0.0000    0.0075    0.0000    0.0000    0.0000    0.0000   -0.0169    0.0000   -0.0127

  MBIS Radial Moments:
   Center  Symbol  Z      [a0^2]      [a0^3]      [a0^4]
      1       C    6   14.337470   35.772186   106.465526
      2       H    1    1.250391    2.126686    4.354444

  MBIS Valence Widths: [a0]
   Center  Symbol  Z     Width
      1       C    6    0.522105
      2       H    1    0.348278

*** tstop() called on Mac.lan at Sun Aug 10 17:08:33 2025
Module time:
	user time   =       2.88 seconds =       0.05 minutes
	system time =       1.80 seconds =       0.03 minutes
	total time  =          1 seconds =       0.02 minutes
Total time:
	user time   =      12.06 seconds =       0.20 minutes
	system time =       4.22 seconds =       0.07 minutes
	total time  =          2 seconds =       0.03 minutes

    Psi4 stopped on: Sunday, 10 August 2025 05:08PM
    Psi4 wall time for execution: 0:00:01.59

*** Psi4 exiting successfully. Buy a developer a beer!
