                               Psi4 1.9.1 release

  ==> Input File <==

--------------------------------------------------------------------------
molecule {
0 2
N           0.000000           0.000000           0.000000
C           0.000000           0.000000           1.445173
}

set {
basis              cc-pvtz
reference          uks
maxiter            500
DAMPING_PERCENTAGE 1
E_CONVERGENCE      1.0E-8
D_CONVERGENCE      1.0E-8
DIIS_MAX_VECS      400
MBIS_MAXITER       8000
guess              read
}

E, wfn = energy('b3lyp', restart_file='last_wfn', return_wfn=True)
properties('b3lyp','MBIS_CHARGES', wfn=wfn)
wfn.to_file('last_wfn')
--------------------------------------------------------------------------

    Molecular point group: c2v
  Charge       = 0
  Multiplicity = 2
  Basis Set: CC-PVTZ
    Blend: CC-PVTZ
  Basis Set: (CC-PVTZ AUX)
    Blend: CC-PVTZ-JKFIT
  @DF-UKS Final Energy:   -92.65676710657395
    Total Energy =                        -92.6567671065739376
 Dipole X            :          0.0000000            0.0000000            0.0000000
 Dipole Y            :          0.0000000            0.0000000            0.0000000
 Dipole Z            :          0.4002259            0.0019371            0.4021630
 Magnitude           :                                                    0.4021630
    Molecular point group: c2v

    Geometry (in Angstrom), charge = 0, multiplicity = 2:

       Center              X                  Y                   Z               Mass
    ------------   -----------------  -----------------  -----------------  -----------------
         N            0.000000000000     0.000000000000    -0.666924072017    14.003074004430
         C            0.000000000000     0.000000000000     0.778248927983    12.000000000000

  Charge       = 0
  Multiplicity = 2
  Basis Set: CC-PVTZ
    Blend: CC-PVTZ
  Basis Set: (CC-PVTZ AUX)
    Blend: CC-PVTZ-JKFIT

    Orbital Energies [Eh]
    ---------------------

    Alpha Occupied:

       1A1   -14.444669     2A1   -10.359920     3A1    -0.874815
       4A1    -0.554758     5A1    -0.409027     1B1    -0.348284
       1B2    -0.348284

    Alpha Virtual:

       2B2    -0.101213     2B1    -0.101213     6A1     0.137530
       3B1     0.290804     3B2     0.290804     7A1     0.292213
       8A1     0.314459     9A1     0.434431     4B1     0.499950
       4B2     0.499950     1A2     0.626986    10A1     0.626986
       5B1     0.728535     5B2     0.728535    11A1     0.872190
      12A1     1.045847     2A2     1.093307    13A1     1.093307
       6B1     1.388758     6B2     1.388758    14A1     1.596556
       7B1     1.952485     7B2     1.952485    15A1     2.128638
       8B1     2.616385     8B2     2.616385     3A2     2.621399
      16A1     2.621399     9B1     2.626999     9B2     2.626999
      17A1     2.837251     4A2     2.896480    18A1     2.896483
      10B2     2.901334    10B1     2.901334    19A1     2.968355
      11B2     3.210983    11B1     3.210983    20A1     3.266830
      12B2     3.872899    12B1     3.872899    21A1     4.068845
       5A2     4.068845    22A1     4.348384    23A1     4.450445
       6A2     4.450460    13B1     4.488432    13B2     4.488432
      24A1     4.853450    14B2     4.950553    14B1     4.950553
      25A1     5.431315    26A1     8.201887

    Beta Occupied:

       1A1   -14.436888     2A1   -10.348199     3A1    -0.846530
       4A1    -0.488677     1B1    -0.340952     1B2    -0.340952

    Beta Virtual:

       5A1    -0.253824     2B2    -0.084422     2B1    -0.084422
       6A1     0.153826     3B1     0.297397     3B2     0.297397
       7A1     0.325073     8A1     0.352634     9A1     0.462070
       4B1     0.501310     4B2     0.501310     1A2     0.633866
      10A1     0.633866     5B1     0.756208     5B2     0.756208
      11A1     0.884243    12A1     1.082104    13A1     1.094050
       2A2     1.094050     6B1     1.412298     6B2     1.412298
      14A1     1.626857     7B1     1.963826     7B2     1.963826
      15A1     2.176097     8B1     2.636797     8B2     2.636797
       9B1     2.637820     9B2     2.637820     3A2     2.644087
      16A1     2.644087    17A1     2.892345     4A2     2.915152
      18A1     2.915155    10B2     2.930669    10B1     2.930669
      19A1     3.013346    11B2     3.251056    11B1     3.251056
      20A1     3.317724    12B2     3.868152    12B1     3.868152
      21A1     4.081399     5A2     4.081399    22A1     4.385984
      23A1     4.451186     6A2     4.451201    13B1     4.520538
      13B2     4.520538    24A1     4.908069    14B2     4.987116
      14B1     4.987116    25A1     5.454754    26A1     8.221954

    Final Occupation by Irrep:
             A1    A2    B1    B2
    DOCC [     4,    0,    1,    1 ]
    SOCC [     1,    0,    0,    0 ]
    NA   [     5,    0,    1,    1 ]
    NB   [     4,    0,    1,    1 ]

  @DF-UKS Final Energy:   -92.65676710506598

   => Energetics <=

    Nuclear Repulsion Energy =             15.3790880732894948
    One-Electron Energy =                -154.9671550103382174
    Two-Electron Energy =                  56.5905992301786753
    DFT Exchange-Correlation Energy =      -9.6592993981959250
    Empirical Dispersion Energy =           0.0000000000000000
    VV10 Nonlocal Energy =                  0.0000000000000000
    Total Energy =                        -92.6567671050659811

  UHF NO Occupations:
  HONO-2 :    1 B2 1.9988560
  HONO-1 :    4 A1 1.9971599
  HONO-0 :    5 A1 1.0000000
  LUNO+0 :    6 A1 0.0028401
  LUNO+1 :    2 B1 0.0011440
  LUNO+2 :    2 B2 0.0011440
  LUNO+3 :    7 A1 0.0002088

Computation Completed

Properties will be evaluated at   0.000000,   0.000000,   0.000000 [a0]

Properties computed using the B3LYP density matrix

 Multipole Moments:

 ------------------------------------------------------------------------------------
     Multipole            Electronic (a.u.)      Nuclear  (a.u.)        Total (a.u.)
 ------------------------------------------------------------------------------------

 L = 1.  Multiply by 2.5417464519 to convert [e a0] to [Debye]
 Dipole X            :          0.0000000            0.0000000            0.0000000
 Dipole Y            :          0.0000000            0.0000000            0.0000000
 Dipole Z            :          0.4002259            0.0019371            0.4021630
 Magnitude           :                                                    0.4021630

 L = 2.  Multiply by 1.3450342976 to convert [e a0^2] to [Debye ang]
 Quadrupole XX       :         -8.7638844            0.0000000           -8.7638844
 Quadrupole XY       :          0.0000000            0.0000000            0.0000000
 Quadrupole XZ       :          0.0000000            0.0000000            0.0000000
 Quadrupole YY       :         -8.7638844            0.0000000           -8.7638844
 Quadrupole YZ       :          0.0000000            0.0000000            0.0000000
 Quadrupole ZZ       :        -31.6325947           24.0959113           -7.5366834
 Traceless XX        :          7.6229034           -8.0319704           -0.4090670
 Traceless YY        :          7.6229034           -8.0319704           -0.4090670
 Traceless ZZ        :        -15.2458068           16.0639409            0.8181340

 ------------------------------------------------------------------------------------
  ==> Computing MBIS Charges <==

  Electron Count from Grid (Expected Number): 13.00000 (13.00000)
  Difference:  0.00000

  MBIS Charges: (a.u.)
   Center  Symbol  Z      Pop.       Charge
      1       N    7    7.181911   -0.181911
      2       C    6    5.818090    0.181910

  MBIS Dipoles: [e a0]
   Center  Symbol  Z        X           Y           Z
      1       N    7   -0.000000    0.000000   -0.255538
      2       C    6   -0.000000    0.000000    0.160907

  MBIS Quadrupoles: [e a0^2]
   Center  Symbol  Z      XX        XY        XZ        YY        YZ        ZZ
      1       N    7   -4.4835   -0.0000   -0.0000   -4.4835    0.0000   -4.4152
      2       C    6   -4.2804    0.0000    0.0000   -4.2804    0.0000   -4.3434

  MBIS Octupoles: [e a0^3]
   Center  Symbol  Z      XXX       XXY       XXZ       XYY       XYZ       XZZ       YYY       YYZ       YZZ       ZZZ
      1       N    7   -0.0000    0.0000   -0.3891   -0.0000    0.0000    0.0000   -0.0000   -0.3891   -0.0000   -1.0027
      2       C    6   -0.0000    0.0000    0.3687   -0.0000   -0.0000   -0.0000    0.0000    0.3687    0.0000    0.7753

  MBIS Radial Moments:
   Center  Symbol  Z      [a0^2]      [a0^3]      [a0^4]
      1       N    7   13.382189   29.021949   74.970808
      2       C    6   12.904172   31.321437   90.317352

  MBIS Valence Widths: [a0]
   Center  Symbol  Z     Width
      1       N    7    0.452767
      2       C    6    0.514693

*** tstop() called on Mac.lan at Sun Aug 10 17:14:22 2025
Module time:
	user time   =       3.94 seconds =       0.07 minutes
	system time =       2.13 seconds =       0.04 minutes
	total time  =          1 seconds =       0.02 minutes
Total time:
	user time   =      22.28 seconds =       0.37 minutes
	system time =       4.38 seconds =       0.07 minutes
	total time  =          3 seconds =       0.05 minutes

    Psi4 stopped on: Sunday, 10 August 2025 05:14PM
    Psi4 wall time for execution: 0:00:02.57

*** Psi4 exiting successfully. Buy a developer a beer!
