                               Psi4 1.9.1 release

  ==> Input File <==

--------------------------------------------------------------------------
molecule {
0 1
N           0.000000           0.000000           0.000000
N           0.000000           0.000000           0.855244
}

set {
basis              cc-pvtz
reference          uks
maxiter            500
DAMPING_PERCENTAGE 1
E_CONVERGENCE      1.0E-8
D_CONVERGENCE      1.0E-8
DIIS_MAX_VECS      400
MBIS_MAXITER       8000
guess              read
}

E, wfn = energy('b3lyp', restart_file='last_wfn', return_wfn=True)
properties('b3lyp','MBIS_CHARGES', wfn=wfn)
wfn.to_file('last_wfn')
--------------------------------------------------------------------------

    Molecular point group: d2h
  Charge       = 0
  Multiplicity = 1
  Basis Set: CC-PVTZ
    Blend: CC-PVTZ
  Basis Set: (CC-PVTZ AUX)
    Blend: CC-PVTZ-JKFIT
  @DF-UKS Final Energy:  -109.27871967189826
    Total Energy =                       -109.2787196718982585
 Dipole X            :          0.0000000            0.0000000            0.0000000
 Dipole Y            :          0.0000000            0.0000000            0.0000000
 Dipole Z            :          0.0000000            0.0000000            0.0000000
 Magnitude           :                                                    0.0000000
    Molecular point group: d2h

    Geometry (in Angstrom), charge = 0, multiplicity = 1:

       Center              X                  Y                   Z               Mass
    ------------   -----------------  -----------------  -----------------  -----------------
         N            0.000000000000     0.000000000000    -0.427622000000    14.003074004430
         N            0.000000000000     0.000000000000     0.427622000000    14.003074004430

  Charge       = 0
  Multiplicity = 1
  Basis Set: CC-PVTZ
    Blend: CC-PVTZ
  Basis Set: (CC-PVTZ AUX)
    Blend: CC-PVTZ-JKFIT

    Orbital Energies [Eh]
    ---------------------

    Alpha Occupied:

       1Ag   -14.351497     1B1u  -14.333453     2Ag    -1.251649
       1B3u   -0.569211     1B2u   -0.569211     2B1u   -0.483599
       3Ag    -0.446253

    Alpha Virtual:

       1B2g    0.106423     1B3g    0.106423     3B1u    0.308149
       2B2u    0.353313     2B3u    0.353313     4Ag     0.384539
       5Ag     0.513605     2B3g    0.583201     2B2g    0.583201
       4B1u    0.819279     6Ag     0.827994     1B1g    0.827994
       5B1u    1.244235     3B3u    1.257968     3B2u    1.257968
       6B1u    1.358746     1Au     1.358746     7Ag     1.592500
       3B2g    1.698819     3B3g    1.698819     7B1u    2.624015
       4B2u    2.646636     4B3u    2.646636     8Ag     3.137867
       4B2g    3.343096     4B3g    3.343096     8B1u    3.405862
       5B3u    3.488429     5B2u    3.488429     9Ag     3.561457
       2B1g    3.561458     6B3u    3.891877     6B2u    3.891877
      10Ag     4.175675     5B2g    4.303195     5B3g    4.303195
       6B2g    4.312540     6B3g    4.312540    11Ag     4.438350
       3B1g    4.438351     9B1u    4.446848     2Au     4.446848
      12Ag     4.793948    10B1u    5.158869     7B3u    5.402324
       7B2u    5.402324    11B1u    5.589482     3Au     5.589483
      12B1u    6.785213     7B2g    7.479094     7B3g    7.479094
      13Ag     8.433839    13B1u   24.897094

    Beta Occupied:

       1Ag   -14.351497     1B1u  -14.333453     2Ag    -1.251649
       1B3u   -0.569211     1B2u   -0.569211     2B1u   -0.483599
       3Ag    -0.446253

    Beta Virtual:

       1B2g    0.106423     1B3g    0.106423     3B1u    0.308149
       2B2u    0.353313     2B3u    0.353313     4Ag     0.384539
       5Ag     0.513605     2B3g    0.583201     2B2g    0.583201
       4B1u    0.819279     6Ag     0.827994     1B1g    0.827994
       5B1u    1.244235     3B3u    1.257968     3B2u    1.257968
       6B1u    1.358746     1Au     1.358746     7Ag     1.592500
       3B2g    1.698819     3B3g    1.698819     7B1u    2.624015
       4B2u    2.646636     4B3u    2.646636     8Ag     3.137867
       4B2g    3.343096     4B3g    3.343096     8B1u    3.405862
       5B3u    3.488429     5B2u    3.488429     9Ag     3.561457
       2B1g    3.561458     6B3u    3.891877     6B2u    3.891877
      10Ag     4.175675     5B2g    4.303195     5B3g    4.303195
       6B2g    4.312540     6B3g    4.312540    11Ag     4.438350
       3B1g    4.438351     9B1u    4.446848     2Au     4.446848
      12Ag     4.793948    10B1u    5.158869     7B3u    5.402324
       7B2u    5.402324    11B1u    5.589482     3Au     5.589483
      12B1u    6.785213     7B2g    7.479094     7B3g    7.479094
      13Ag     8.433839    13B1u   24.897094

    Final Occupation by Irrep:
             Ag   B1g   B2g   B3g    Au   B1u   B2u   B3u
    DOCC [     3,    0,    0,    0,    0,    2,    1,    1 ]
    SOCC [     0,    0,    0,    0,    0,    0,    0,    0 ]
    NA   [     3,    0,    0,    0,    0,    2,    1,    1 ]
    NB   [     3,    0,    0,    0,    0,    2,    1,    1 ]

  @DF-UKS Final Energy:  -109.27871967253223

   => Energetics <=

    Nuclear Repulsion Energy =             30.3184627110274931
    One-Electron Energy =                -206.9814162373418185
    Two-Electron Energy =                  78.8009434528666191
    DFT Exchange-Correlation Energy =     -11.4167095990845446
    Empirical Dispersion Energy =           0.0000000000000000
    VV10 Nonlocal Energy =                  0.0000000000000000
    Total Energy =                       -109.2787196725322332

  UHF NO Occupations:
  HONO-2 :    2B1u 2.0000000
  HONO-1 :    3 Ag 2.0000000
  HONO-0 :    1B3u 2.0000000
  LUNO+0 :    4 Ag 0.0000000
  LUNO+1 :    5 Ag 0.0000000
  LUNO+2 :    3B1u 0.0000000
  LUNO+3 :    4B1u 0.0000000

Computation Completed

Properties will be evaluated at   0.000000,   0.000000,   0.000000 [a0]

Properties computed using the B3LYP density matrix

 Multipole Moments:

 ------------------------------------------------------------------------------------
     Multipole            Electronic (a.u.)      Nuclear  (a.u.)        Total (a.u.)
 ------------------------------------------------------------------------------------

 L = 1.  Multiply by 2.5417464519 to convert [e a0] to [Debye]
 Dipole X            :          0.0000000            0.0000000            0.0000000
 Dipole Y            :          0.0000000            0.0000000            0.0000000
 Dipole Z            :          0.0000000            0.0000000            0.0000000
 Magnitude           :                                                    0.0000000

 L = 2.  Multiply by 1.3450342976 to convert [e a0^2] to [Debye ang]
 Quadrupole XX       :         -6.9026102            0.0000000           -6.9026102
 Quadrupole XY       :          0.0000000            0.0000000            0.0000000
 Quadrupole XZ       :          0.0000000            0.0000000            0.0000000
 Quadrupole YY       :         -6.9026102            0.0000000           -6.9026102
 Quadrupole YZ       :          0.0000000            0.0000000            0.0000000
 Quadrupole ZZ       :        -17.6711134            9.1420975           -8.5290159
 Traceless XX        :          3.5895011           -3.0473658            0.5421352
 Traceless YY        :          3.5895011           -3.0473658            0.5421352
 Traceless ZZ        :         -7.1790021            6.0947317           -1.0842704

 ------------------------------------------------------------------------------------
  ==> Computing MBIS Charges <==

  Electron Count from Grid (Expected Number): 14.00000 (14.00000)
  Difference:  0.00000

  MBIS Charges: (a.u.)
   Center  Symbol  Z      Pop.       Charge
      1       N    7    7.000000   -0.000000
      2       N    7    7.000000   -0.000000

  MBIS Dipoles: [e a0]
   Center  Symbol  Z        X           Y           Z
      1       N    7    0.000000   -0.000000    0.115237
      2       N    7   -0.000000    0.000000   -0.115237

  MBIS Quadrupoles: [e a0^2]
   Center  Symbol  Z      XX        XY        XZ        YY        YZ        ZZ
      1       N    7   -3.4513   -0.0000    0.0000   -3.4513    0.0000   -4.0783
      2       N    7   -3.4513   -0.0000   -0.0000   -3.4513   -0.0000   -4.0783

  MBIS Octupoles: [e a0^3]
   Center  Symbol  Z      XXX       XXY       XXZ       XYY       XYZ       XZZ       YYY       YYZ       YZZ       ZZZ
      1       N    7    0.0000    0.0000    0.1835   -0.0000    0.0000   -0.0000   -0.0000    0.1835    0.0000    0.5762
      2       N    7    0.0000    0.0000   -0.1835   -0.0000   -0.0000    0.0000    0.0000   -0.1835   -0.0000   -0.5762

  MBIS Radial Moments:
   Center  Symbol  Z      [a0^2]      [a0^3]      [a0^4]
      1       N    7   10.980875   22.025692   52.983030
      2       N    7   10.980875   22.025692   52.983030

  MBIS Valence Widths: [a0]
   Center  Symbol  Z     Width
      1       N    7    0.413506
      2       N    7    0.413506

*** tstop() called on Mac.lan at Sun Aug 10 17:06:02 2025
Module time:
	user time   =       4.07 seconds =       0.07 minutes
	system time =       2.12 seconds =       0.04 minutes
	total time  =          1 seconds =       0.02 minutes
Total time:
	user time   =      14.49 seconds =       0.24 minutes
	system time =       4.45 seconds =       0.07 minutes
	total time  =          2 seconds =       0.03 minutes

    Psi4 stopped on: Sunday, 10 August 2025 05:06PM
    Psi4 wall time for execution: 0:00:01.84

*** Psi4 exiting successfully. Buy a developer a beer!
