                               Psi4 1.9.1 release

  ==> Input File <==

--------------------------------------------------------------------------
molecule {
0 3
C           0.000000           0.000000           0.000000
C           0.000000           0.000000           1.641873
}

set {
basis              cc-pvtz
reference          uks
maxiter            500
DAMPING_PERCENTAGE 1
E_CONVERGENCE      1.0E-8
D_CONVERGENCE      1.0E-8
DIIS_MAX_VECS      400
MBIS_MAXITER       8000
guess              read
}

E, wfn = energy('b3lyp', restart_file='last_wfn', return_wfn=True)
properties('b3lyp','MBIS_CHARGES', wfn=wfn)
wfn.to_file('last_wfn')
--------------------------------------------------------------------------

    Molecular point group: d2h
  Charge       = 0
  Multiplicity = 3
  Basis Set: CC-PVTZ
    Blend: CC-PVTZ
  Basis Set: (CC-PVTZ AUX)
    Blend: CC-PVTZ-JKFIT
  @DF-UKS Final Energy:   -75.87364768872155
    Total Energy =                        -75.8736476887215474
 Dipole X            :          0.0000000            0.0000000            0.0000000
 Dipole Y            :          0.0000000            0.0000000            0.0000000
 Dipole Z            :          0.0000000            0.0000000            0.0000000
 Magnitude           :                                                    0.0000000
    Molecular point group: d2h

    Geometry (in Angstrom), charge = 0, multiplicity = 3:

       Center              X                  Y                   Z               Mass
    ------------   -----------------  -----------------  -----------------  -----------------
         C            0.000000000000     0.000000000000    -0.820936500000    12.000000000000
         C            0.000000000000     0.000000000000     0.820936500000    12.000000000000

  Charge       = 0
  Multiplicity = 3
  Basis Set: CC-PVTZ
    Blend: CC-PVTZ
  Basis Set: (CC-PVTZ AUX)
    Blend: CC-PVTZ-JKFIT

    Orbital Energies [Eh]
    ---------------------

    Alpha Occupied:

       1Ag   -10.336718     1B1u  -10.336493     2Ag    -0.732658
       2B1u   -0.503106     3Ag    -0.350331     1B3u   -0.322033
       1B2u   -0.292316

    Alpha Virtual:

       1B2g   -0.123415     1B3g   -0.095934     3B1u    0.101411
       4B1u    0.269031     2B3u    0.272978     4Ag     0.284289
       2B2u    0.287765     5Ag     0.326986     2B2g    0.339507
       2B3g    0.352095     1B1g    0.563792     6Ag     0.564291
       3B3u    0.607811     5B1u    0.616525     3B2u    0.630040
       1Au     0.777292     6B1u    0.777653     3B2g    1.050978
       7Ag     1.057659     3B3g    1.068048     7B1u    1.084618
       4B3u    1.851461     4B2u    1.873942     8Ag     1.941643
       4B2g    1.996101     4B3g    2.021296     5B3u    2.368732
       9Ag     2.387693     2B1g    2.388433     5B2u    2.393329
      10Ag     2.452897     8B1u    2.498301     6B3u    2.571955
       6B2u    2.572070     5B2g    2.705482     5B3g    2.705569
       3B1g    2.871958    11Ag     2.872097     9B1u    2.901410
       2Au     2.902339    10B1u    2.933602     6B2g    3.016923
       6B3g    3.039579     3Au     3.077978    11B1u    3.078975
       7B3u    3.081619     7B2u    3.105443    12B1u    3.407868
      12Ag     3.592080     7B2g    3.751081     7B3g    3.774239
      13Ag     3.901461    13B1u    6.434209

    Beta Occupied:

       1Ag   -10.321514     1B1u  -10.321425     2Ag    -0.669911
       2B1u   -0.421661     1B2u   -0.276160

    Beta Virtual:

       3Ag    -0.201659     1B3u   -0.188776     1B3g   -0.076767
       1B2g   -0.045061     3B1u    0.136994     2B2u    0.293532
       2B3u    0.304246     4Ag     0.312164     4B1u    0.323742
       5Ag     0.355662     2B3g    0.357660     2B2g    0.366431
       1B1g    0.588805     6Ag     0.591023     5B1u    0.636419
       3B2u    0.657478     3B3u    0.665472     1Au     0.800121
       6B1u    0.802101     3B3g    1.091088     3B2g    1.094696
       7Ag     1.100914     7B1u    1.124188     4B2u    1.888335
       4B3u    1.901819     8Ag     1.993353     4B3g    2.031867
       4B2g    2.043489     5B2u    2.421465     2B1g    2.430707
       5B3u    2.431324     9Ag     2.432898    10Ag     2.509790
       8B1u    2.542951     6B2u    2.602530     6B3u    2.603288
       5B3g    2.735644     5B2g    2.736405     3B1g    2.910306
      11Ag     2.914753     2Au     2.934885     9B1u    2.938686
      10B1u    2.995878     6B3g    3.080092     6B2g    3.094908
       3Au     3.123220    11B1u    3.126021     7B2u    3.149533
       7B3u    3.161815    12B1u    3.462885    12Ag     3.649211
       7B3g    3.808260     7B2g    3.815051    13Ag     3.938892
      13B1u    6.466849

    Final Occupation by Irrep:
             Ag   B1g   B2g   B3g    Au   B1u   B2u   B3u
    DOCC [     2,    0,    0,    0,    0,    2,    1,    0 ]
    SOCC [     1,    0,    0,    0,    0,    0,    0,    1 ]
    NA   [     3,    0,    0,    0,    0,    2,    1,    1 ]
    NB   [     2,    0,    0,    0,    0,    2,    1,    0 ]

  @DF-UKS Final Energy:   -75.87364768871716

   => Energetics <=

    Nuclear Repulsion Energy =             11.6028338270499631
    One-Electron Energy =                -123.9910840112762003
    Two-Electron Energy =                  44.9358480877439064
    DFT Exchange-Correlation Energy =      -8.4212455922348290
    Empirical Dispersion Energy =           0.0000000000000000
    VV10 Nonlocal Energy =                  0.0000000000000000
    Total Energy =                        -75.8736476887171563

  UHF NO Occupations:
  HONO-2 :    2B1u 1.9977895
  HONO-1 :    1B3u 1.0000000
  HONO-0 :    3 Ag 1.0000000
  LUNO+0 :    3B1u 0.0022105
  LUNO+1 :    4 Ag 0.0004264
  LUNO+2 :    2B2u 0.0001770
  LUNO+3 :    4B1u 0.0000006

Computation Completed

Properties will be evaluated at   0.000000,   0.000000,   0.000000 [a0]

Properties computed using the B3LYP density matrix

 Multipole Moments:

 ------------------------------------------------------------------------------------
     Multipole            Electronic (a.u.)      Nuclear  (a.u.)        Total (a.u.)
 ------------------------------------------------------------------------------------

 L = 1.  Multiply by 2.5417464519 to convert [e a0] to [Debye]
 Dipole X            :          0.0000000            0.0000000            0.0000000
 Dipole Y            :          0.0000000            0.0000000            0.0000000
 Dipole Z            :          0.0000000            0.0000000            0.0000000
 Magnitude           :                                                    0.0000000

 L = 2.  Multiply by 1.3450342976 to convert [e a0^2] to [Debye ang]
 Quadrupole XX       :         -8.4502287            0.0000000           -8.4502287
 Quadrupole XY       :          0.0000000            0.0000000            0.0000000
 Quadrupole XZ       :          0.0000000            0.0000000            0.0000000
 Quadrupole YY       :        -10.0816531            0.0000000          -10.0816531
 Quadrupole YZ       :          0.0000000            0.0000000            0.0000000
 Quadrupole ZZ       :        -37.5839943           28.8800613           -8.7039330
 Traceless XX        :         10.2550633           -9.6266871            0.6283762
 Traceless YY        :          8.6236390           -9.6266871           -1.0030481
 Traceless ZZ        :        -18.8787023           19.2533742            0.3746720

 ------------------------------------------------------------------------------------
  ==> Computing MBIS Charges <==

  Electron Count from Grid (Expected Number): 12.00000 (12.00000)
  Difference:  0.00000

  MBIS Charges: (a.u.)
   Center  Symbol  Z      Pop.       Charge
      1       C    6    6.000000   -0.000000
      2       C    6    6.000000   -0.000000

  MBIS Dipoles: [e a0]
   Center  Symbol  Z        X           Y           Z
      1       C    6   -0.000000   -0.000000   -0.139694
      2       C    6   -0.000000   -0.000000    0.139694

  MBIS Quadrupoles: [e a0^2]
   Center  Symbol  Z      XX        XY        XZ        YY        YZ        ZZ
      1       C    6   -4.2251    0.0000   -0.0000   -5.0408   -0.0000   -4.7854
      2       C    6   -4.2251    0.0000    0.0000   -5.0408    0.0000   -4.7854

  MBIS Octupoles: [e a0^3]
   Center  Symbol  Z      XXX       XXY       XXZ       XYY       XYZ       XZZ       YYY       YYZ       YZZ       ZZZ
      1       C    6   -0.0000   -0.0000   -0.2145   -0.0000    0.0000   -0.0000    0.0000   -0.4755    0.0000   -0.8857
      2       C    6   -0.0000   -0.0000    0.2145   -0.0000   -0.0000   -0.0000    0.0000    0.4755    0.0000    0.8857

  MBIS Radial Moments:
   Center  Symbol  Z      [a0^2]      [a0^3]      [a0^4]
      1       C    6   14.051335   34.966467   103.588474
      2       C    6   14.051335   34.966467   103.588474

  MBIS Valence Widths: [a0]
   Center  Symbol  Z     Width
      1       C    6    0.525774
      2       C    6    0.525774

*** tstop() called on Mac.lan at Sun Aug 10 17:04:36 2025
Module time:
	user time   =       4.37 seconds =       0.07 minutes
	system time =       2.09 seconds =       0.03 minutes
	total time  =          1 seconds =       0.02 minutes
Total time:
	user time   =      16.81 seconds =       0.28 minutes
	system time =       4.43 seconds =       0.07 minutes
	total time  =          2 seconds =       0.03 minutes

    Psi4 stopped on: Sunday, 10 August 2025 05:04PM
    Psi4 wall time for execution: 0:00:02.11

*** Psi4 exiting successfully. Buy a developer a beer!
