                               Psi4 1.9.1 release

  ==> Input File <==

--------------------------------------------------------------------------
molecule {
0 2
C           0.000000           0.000000           0.000000
H           0.000000           0.000000           1.685550
}

set {
basis              cc-pvtz
reference          uks
maxiter            500
DAMPING_PERCENTAGE 1
E_CONVERGENCE      1.0E-8
D_CONVERGENCE      1.0E-8
DIIS_MAX_VECS      400
MBIS_MAXITER       8000
guess              read
}

E, wfn = energy('b3lyp', restart_file='last_wfn', return_wfn=True)
properties('b3lyp','MBIS_CHARGES', wfn=wfn)
wfn.to_file('last_wfn')
--------------------------------------------------------------------------

    Molecular point group: c2v
  Charge       = 0
  Multiplicity = 2
  Basis Set: CC-PVTZ
    Blend: CC-PVTZ
  Basis Set: (CC-PVTZ AUX)
    Blend: CC-PVTZ-JKFIT
  @DF-UKS Final Energy:   -38.43323069462762
    Total Energy =                        -38.4332306946276248
 Dipole X            :          0.0000000            0.0000000            0.0000000
 Dipole Y            :          0.0000000            0.0000000            0.0000000
 Dipole Z            :         -1.3513183            1.4577241            0.1064058
 Magnitude           :                                                    0.1064058
    Molecular point group: c2v

    Geometry (in Angstrom), charge = 0, multiplicity = 2:

       Center              X                  Y                   Z               Mass
    ------------   -----------------  -----------------  -----------------  -----------------
         C            0.000000000000     0.000000000000    -0.130593660267    12.000000000000
         H            0.000000000000     0.000000000000     1.554956339733     1.007825032230

  Charge       = 0
  Multiplicity = 2
  Basis Set: CC-PVTZ
    Blend: CC-PVTZ
  Basis Set: (CC-PVTZ AUX)
    Blend: CC-PVTZ-JKFIT

    Orbital Energies [Eh]
    ---------------------

    Alpha Occupied:

       1A1   -10.334608     2A1    -0.594195     3A1    -0.305560
       1B1    -0.275327

    Alpha Virtual:

       1B2    -0.160067     4A1    -0.046654     5A1     0.257368
       2B1     0.280861     2B2     0.299818     6A1     0.310523
       7A1     0.439498     3B1     0.536945     3B2     0.538862
       1A2     0.648936     8A1     0.654618     9A1     0.775355
       4B1     0.877305     4B2     0.879089    10A1     1.182584
       5B1     1.882942     5B2     1.910151    11A1     2.015063
      12A1     2.401987     6B1     2.549001     6B2     2.551785
      13A1     2.583071     2A2     2.616494    14A1     2.621708
       7B1     2.626657     7B2     2.629343     3A2     2.867621
      15A1     2.880162     8B1     2.917956     8B2     2.935693
      16A1     3.168987     4A2     3.241764    17A1     3.242282
       9B2     3.530641     9B1     3.531731    18A1     3.628868
      10B2     3.795173    10B1     3.796093    19A1     3.977488
      20A1     4.848823

    Beta Occupied:

       1A1   -10.318053     2A1    -0.537478     3A1    -0.297062

    Beta Virtual:

       1B2    -0.142876     1B1    -0.094781     4A1    -0.037154
       5A1     0.252800     2B2     0.307057     6A1     0.321055
       2B1     0.335750     7A1     0.462453     3B2     0.537558
       3B1     0.553121     8A1     0.691318     1A2     0.692620
       9A1     0.785614     4B2     0.878754     4B1     0.898177
      10A1     1.186835     5B2     1.921292     5B1     1.965300
      11A1     2.026892    12A1     2.393225     6B2     2.556792
       6B1     2.587907    13A1     2.597912     2A2     2.657121
      14A1     2.661757     7B2     2.685530     7B1     2.686260
      15A1     2.943461     3A2     2.944701     8B2     2.946658
       8B1     2.990313    16A1     3.192544     4A2     3.233573
      17A1     3.234071     9B2     3.519126     9B1     3.527120
      18A1     3.655269    10B2     3.781915    10B1     3.790202
      19A1     3.967978    20A1     4.853560

    Final Occupation by Irrep:
             A1    A2    B1    B2
    DOCC [     3,    0,    0,    0 ]
    SOCC [     0,    0,    1,    0 ]
    NA   [     3,    0,    1,    0 ]
    NB   [     3,    0,    0,    0 ]

  @DF-UKS Final Energy:   -38.43323069690166

   => Energetics <=

    Nuclear Repulsion Energy =              1.8836956862863754
    One-Electron Energy =                 -54.7598371410426168
    Two-Electron Energy =                  18.8872029449434571
    DFT Exchange-Correlation Energy =      -4.4442921870888679
    Empirical Dispersion Energy =           0.0000000000000000
    VV10 Nonlocal Energy =                  0.0000000000000000
    Total Energy =                        -38.4332306969016528

  UHF NO Occupations:
  HONO-2 :    2 A1 1.9989833
  HONO-1 :    3 A1 1.9953326
  HONO-0 :    1 B1 1.0000000
  LUNO+0 :    4 A1 0.0046674
  LUNO+1 :    5 A1 0.0010167
  LUNO+2 :    6 A1 0.0000007
  LUNO+3 :    7 A1 0.0000000

Computation Completed

Properties will be evaluated at   0.000000,   0.000000,   0.000000 [a0]

Properties computed using the B3LYP density matrix

 Multipole Moments:

 ------------------------------------------------------------------------------------
     Multipole            Electronic (a.u.)      Nuclear  (a.u.)        Total (a.u.)
 ------------------------------------------------------------------------------------

 L = 1.  Multiply by 2.5417464519 to convert [e a0] to [Debye]
 Dipole X            :          0.0000000            0.0000000            0.0000000
 Dipole Y            :          0.0000000            0.0000000            0.0000000
 Dipole Z            :         -1.3513183            1.4577241            0.1064058
 Magnitude           :                                                    0.1064058

 L = 2.  Multiply by 1.3450342976 to convert [e a0^2] to [Debye ang]
 Quadrupole XX       :         -6.0400733            0.0000000           -6.0400733
 Quadrupole XY       :          0.0000000            0.0000000            0.0000000
 Quadrupole XZ       :          0.0000000            0.0000000            0.0000000
 Quadrupole YY       :         -4.6055577            0.0000000           -4.6055577
 Quadrupole YZ       :          0.0000000            0.0000000            0.0000000
 Quadrupole ZZ       :        -14.9546633            8.9998599           -5.9548035
 Traceless XX        :          2.4933582           -2.9999533           -0.5065951
 Traceless YY        :          3.9278737           -2.9999533            0.9279204
 Traceless ZZ        :         -6.4212319            5.9999066           -0.4213253

 ------------------------------------------------------------------------------------
  ==> Computing MBIS Charges <==

  Electron Count from Grid (Expected Number):  7.00000 ( 7.00000)
  Difference: -0.00000

  MBIS Charges: (a.u.)
   Center  Symbol  Z      Pop.       Charge
      1       C    6    5.959028    0.040972
      2       H    1    1.040972   -0.040972

  MBIS Dipoles: [e a0]
   Center  Symbol  Z        X           Y           Z
      1       C    6    0.000000   -0.000000    0.132152
      2       H    1    0.000000    0.000000    0.104760

  MBIS Quadrupoles: [e a0^2]
   Center  Symbol  Z      XX        XY        XZ        YY        YZ        ZZ
      1       C    6   -5.0073   -0.0000    0.0000   -3.6393    0.0000   -5.1614
      2       H    1   -1.0328   -0.0000    0.0000   -0.9663   -0.0000   -0.9926

  MBIS Octupoles: [e a0^3]
   Center  Symbol  Z      XXX       XXY       XXZ       XYY       XYZ       XZZ       YYY       YYZ       YZZ       ZZZ
      1       C    6    0.0000    0.0000    0.1171   -0.0000    0.0000    0.0000   -0.0000    0.0499   -0.0000    0.0067
      2       H    1    0.0000    0.0000    0.0587    0.0000   -0.0000    0.0000   -0.0000   -0.0299   -0.0000    0.1445

  MBIS Radial Moments:
   Center  Symbol  Z      [a0^2]      [a0^3]      [a0^4]
      1       C    6   13.807919   34.241062   101.307507
      2       H    1    2.991675    7.210622   20.686573

  MBIS Valence Widths: [a0]
   Center  Symbol  Z     Width
      1       C    6    0.523741
      2       H    1    0.492453

*** tstop() called on Mac.lan at Sun Aug 10 17:09:58 2025
Module time:
	user time   =       2.38 seconds =       0.04 minutes
	system time =       2.14 seconds =       0.04 minutes
	total time  =          0 seconds =       0.00 minutes
Total time:
	user time   =      25.78 seconds =       0.43 minutes
	system time =       4.29 seconds =       0.07 minutes
	total time  =          3 seconds =       0.05 minutes

    Psi4 stopped on: Sunday, 10 August 2025 05:09PM
    Psi4 wall time for execution: 0:00:02.98

*** Psi4 exiting successfully. Buy a developer a beer!
