                               Psi4 1.9.1 release

  ==> Input File <==

--------------------------------------------------------------------------
molecule {
0 1
N           0.000000           0.000000           0.000000
N           0.000000           0.000000           1.596900
}

set {
basis              cc-pvtz
reference          uks
maxiter            500
DAMPING_PERCENTAGE 1
E_CONVERGENCE      1.0E-8
D_CONVERGENCE      1.0E-8
DIIS_MAX_VECS      400
MBIS_MAXITER       8000
guess              read
}

E, wfn = energy('b3lyp', restart_file='last_wfn', return_wfn=True)
properties('b3lyp','MBIS_CHARGES', wfn=wfn)
wfn.to_file('last_wfn')
--------------------------------------------------------------------------

    Molecular point group: d2h
  Charge       = 0
  Multiplicity = 1
  Basis Set: CC-PVTZ
    Blend: CC-PVTZ
  Basis Set: (CC-PVTZ AUX)
    Blend: CC-PVTZ-JKFIT
  @DF-UKS Final Energy:  -109.31186329334987
    Total Energy =                       -109.3118632933498731
 Dipole X            :          0.0000000            0.0000000            0.0000000
 Dipole Y            :          0.0000000            0.0000000            0.0000000
 Dipole Z            :          0.0000000            0.0000000            0.0000000
 Magnitude           :                                                    0.0000000
    Molecular point group: d2h

    Geometry (in Angstrom), charge = 0, multiplicity = 1:

       Center              X                  Y                   Z               Mass
    ------------   -----------------  -----------------  -----------------  -----------------
         N            0.000000000000     0.000000000000    -0.798450000000    14.003074004430
         N            0.000000000000     0.000000000000     0.798450000000    14.003074004430

  Charge       = 0
  Multiplicity = 1
  Basis Set: CC-PVTZ
    Blend: CC-PVTZ
  Basis Set: (CC-PVTZ AUX)
    Blend: CC-PVTZ-JKFIT

    Orbital Energies [Eh]
    ---------------------

    Alpha Occupied:

       1Ag   -14.500470     1B1u  -14.500327     2Ag    -0.896527
       2B1u   -0.669095     3Ag    -0.402051     1B2u   -0.363179
       1B3u   -0.363179

    Alpha Virtual:

       1B2g   -0.175816     1B3g   -0.175816     3B1u    0.021018
       4B1u    0.392226     2B2u    0.420116     2B3u    0.420116
       4Ag     0.448763     2B3g    0.500152     2B2g    0.500152
       5Ag     0.503561     5B1u    0.853635     3B3u    0.882999
       3B2u    0.882999     6Ag     0.899632     1B1g    0.899632
       6B1u    1.119780     1Au     1.119780     7Ag     1.377897
       3B2g    1.489523     3B3g    1.489523     7B1u    1.672905
       4B3u    2.676951     4B2u    2.676951     8Ag     2.701576
       4B2g    2.837972     4B3g    2.837972     8B1u    3.368965
       5B3u    3.515757     5B2u    3.515757     9Ag     3.566151
      10Ag     3.602388     2B1g    3.602388     6B3u    3.788156
       6B2u    3.788156     5B2g    3.857843     5B3g    3.857843
       9B1u    4.060569     2Au     4.060571    11Ag     4.317132
       3B1g    4.317135     6B3g    4.352656     6B2g    4.352656
      10B1u    4.454615     3Au     4.454616     7B3u    4.457583
       7B2u    4.457583    11B1u    4.521547    12Ag     4.848318
      12B1u    4.959209     7B2g    5.043484     7B3g    5.043484
      13Ag     5.545740    13B1u    6.919171

    Beta Occupied:

       1Ag   -14.500470     1B1u  -14.500327     2Ag    -0.896527
       2B1u   -0.669095     3Ag    -0.402051     1B2u   -0.363179
       1B3u   -0.363179

    Beta Virtual:

       1B3g   -0.175816     1B2g   -0.175816     3B1u    0.021018
       4B1u    0.392226     2B2u    0.420116     2B3u    0.420116
       4Ag     0.448763     2B3g    0.500152     2B2g    0.500152
       5Ag     0.503561     5B1u    0.853635     3B3u    0.882999
       3B2u    0.882999     6Ag     0.899632     1B1g    0.899632
       6B1u    1.119780     1Au     1.119780     7Ag     1.377897
       3B2g    1.489523     3B3g    1.489523     7B1u    1.672905
       4B3u    2.676951     4B2u    2.676951     8Ag     2.701576
       4B2g    2.837972     4B3g    2.837972     8B1u    3.368965
       5B3u    3.515757     5B2u    3.515757     9Ag     3.566151
      10Ag     3.602388     2B1g    3.602388     6B3u    3.788156
       6B2u    3.788156     5B2g    3.857843     5B3g    3.857843
       9B1u    4.060569     2Au     4.060571    11Ag     4.317132
       3B1g    4.317135     6B3g    4.352656     6B2g    4.352656
      10B1u    4.454615     3Au     4.454616     7B3u    4.457583
       7B2u    4.457583    11B1u    4.521547    12Ag     4.848318
      12B1u    4.959209     7B2g    5.043484     7B3g    5.043484
      13Ag     5.545740    13B1u    6.919171

    Final Occupation by Irrep:
             Ag   B1g   B2g   B3g    Au   B1u   B2u   B3u
    DOCC [     3,    0,    0,    0,    0,    2,    1,    1 ]
    SOCC [     0,    0,    0,    0,    0,    0,    0,    0 ]
    NA   [     3,    0,    0,    0,    0,    2,    1,    1 ]
    NB   [     3,    0,    0,    0,    0,    2,    1,    1 ]

  @DF-UKS Final Energy:  -109.31186329360088

   => Energetics <=

    Nuclear Repulsion Energy =             16.2375122567662373
    One-Electron Energy =                -179.9372146414515896
    Two-Electron Energy =                  65.1733013645402082
    DFT Exchange-Correlation Energy =     -10.7854622734557424
    Empirical Dispersion Energy =           0.0000000000000000
    VV10 Nonlocal Energy =                  0.0000000000000000
    Total Energy =                       -109.3118632936008794

  UHF NO Occupations:
  HONO-2 :    2 Ag 2.0000000
  HONO-1 :    1B3u 2.0000000
  HONO-0 :    3 Ag 2.0000000
  LUNO+0 :    4 Ag 0.0000000
  LUNO+1 :    3B1u 0.0000000
  LUNO+2 :    4B1u 0.0000000
  LUNO+3 :    5 Ag 0.0000000

Computation Completed

Properties will be evaluated at   0.000000,   0.000000,   0.000000 [a0]

Properties computed using the B3LYP density matrix

 Multipole Moments:

 ------------------------------------------------------------------------------------
     Multipole            Electronic (a.u.)      Nuclear  (a.u.)        Total (a.u.)
 ------------------------------------------------------------------------------------

 L = 1.  Multiply by 2.5417464519 to convert [e a0] to [Debye]
 Dipole X            :          0.0000000            0.0000000            0.0000000
 Dipole Y            :          0.0000000            0.0000000            0.0000000
 Dipole Z            :          0.0000000            0.0000000            0.0000000
 Magnitude           :                                                    0.0000000

 L = 2.  Multiply by 1.3450342976 to convert [e a0^2] to [Debye ang]
 Quadrupole XX       :         -8.3450808            0.0000000           -8.3450808
 Quadrupole XY       :          0.0000000            0.0000000            0.0000000
 Quadrupole XZ       :          0.0000000            0.0000000            0.0000000
 Quadrupole YY       :         -8.3450808            0.0000000           -8.3450808
 Quadrupole YZ       :          0.0000000            0.0000000            0.0000000
 Quadrupole ZZ       :        -40.2375101           31.8728736           -8.3646364
 Traceless XX        :         10.6308098          -10.6242912            0.0065186
 Traceless YY        :         10.6308098          -10.6242912            0.0065186
 Traceless ZZ        :        -21.2616195           21.2485824           -0.0130371

 ------------------------------------------------------------------------------------
  ==> Computing MBIS Charges <==

  Electron Count from Grid (Expected Number): 14.00000 (14.00000)
  Difference: -0.00000

  MBIS Charges: (a.u.)
   Center  Symbol  Z      Pop.       Charge
      1       N    7    7.000000    0.000000
      2       N    7    7.000000    0.000000

  MBIS Dipoles: [e a0]
   Center  Symbol  Z        X           Y           Z
      1       N    7    0.000000   -0.000000   -0.067593
      2       N    7    0.000000   -0.000000    0.067593

  MBIS Quadrupoles: [e a0^2]
   Center  Symbol  Z      XX        XY        XZ        YY        YZ        ZZ
      1       N    7   -4.1725   -0.0000    0.0000   -4.1725   -0.0000   -4.3863
      2       N    7   -4.1725   -0.0000   -0.0000   -4.1725    0.0000   -4.3863

  MBIS Octupoles: [e a0^3]
   Center  Symbol  Z      XXX       XXY       XXZ       XYY       XYZ       XZZ       YYY       YYZ       YZZ       ZZZ
      1       N    7   -0.0000   -0.0000   -0.2390    0.0000   -0.0000   -0.0000   -0.0000   -0.2390   -0.0000   -0.5320
      2       N    7    0.0000   -0.0000    0.2390    0.0000    0.0000    0.0000   -0.0000    0.2390   -0.0000    0.5320

  MBIS Radial Moments:
   Center  Symbol  Z      [a0^2]      [a0^3]      [a0^4]
      1       N    7   12.731375   27.349842   69.899280
      2       N    7   12.731375   27.349842   69.899280

  MBIS Valence Widths: [a0]
   Center  Symbol  Z     Width
      1       N    7    0.449186
      2       N    7    0.449186

*** tstop() called on Mac.lan at Sun Aug 10 17:07:52 2025
Module time:
	user time   =       3.85 seconds =       0.06 minutes
	system time =       2.09 seconds =       0.03 minutes
	total time  =          0 seconds =       0.00 minutes
Total time:
	user time   =      15.77 seconds =       0.26 minutes
	system time =       4.39 seconds =       0.07 minutes
	total time  =          2 seconds =       0.03 minutes

    Psi4 stopped on: Sunday, 10 August 2025 05:07PM
    Psi4 wall time for execution: 0:00:01.99

*** Psi4 exiting successfully. Buy a developer a beer!
