                               Psi4 1.9.1 release

  ==> Input File <==

--------------------------------------------------------------------------
molecule {
0 1
O           0.000000           0.000000           0.000000
C           0.000000           0.000000           0.820466
}

set {
basis              cc-pvtz
reference          uks
maxiter            500
DAMPING_PERCENTAGE 1
E_CONVERGENCE      1.0E-8
D_CONVERGENCE      1.0E-8
DIIS_MAX_VECS      400
MBIS_MAXITER       8000
guess              read
}

E, wfn = energy('b3lyp', restart_file='last_wfn', return_wfn=True)
properties('b3lyp','MBIS_CHARGES', wfn=wfn)
wfn.to_file('last_wfn')
--------------------------------------------------------------------------

    Molecular point group: c2v
  Charge       = 0
  Multiplicity = 1
  Basis Set: CC-PVTZ
    Blend: CC-PVTZ
  Basis Set: (CC-PVTZ AUX)
    Blend: CC-PVTZ-JKFIT
  @DF-UKS Final Energy:  -112.88972903385272
    Total Energy =                       -112.8897290338527171
 Dipole X            :          0.0000000            0.0000000            0.0000000
 Dipole Y            :          0.0000000            0.0000000            0.0000000
 Dipole Z            :         -0.4221094           -0.0016899           -0.4237992
 Magnitude           :                                                    0.4237992
    Molecular point group: c2v

    Geometry (in Angstrom), charge = 0, multiplicity = 1:

       Center              X                  Y                   Z               Mass
    ------------   -----------------  -----------------  -----------------  -----------------
         O            0.000000000000     0.000000000000    -0.351692160301    15.994914619570
         C            0.000000000000     0.000000000000     0.468773839699    12.000000000000

  Charge       = 0
  Multiplicity = 1
  Basis Set: CC-PVTZ
    Blend: CC-PVTZ
  Basis Set: (CC-PVTZ AUX)
    Blend: CC-PVTZ-JKFIT

    Orbital Energies [Eh]
    ---------------------

    Alpha Occupied:

       1A1   -19.207457     2A1   -10.192796     3A1    -1.317047
       1B1    -0.622008     1B2    -0.622008     4A1    -0.580176
       5A1    -0.345413

    Alpha Virtual:

       2B1     0.097674     2B2     0.097674     6A1     0.167913
       3B2     0.299724     3B1     0.299724     7A1     0.304746
       8A1     0.539515     4B1     0.607602     4B2     0.607602
       1A2     0.633726     9A1     0.633726    10A1     0.845809
       5B1     1.001578     5B2     1.001578    11A1     1.253933
      12A1     1.589250     2A2     1.589250     6B2     1.710621
       6B1     1.710621    13A1     1.779683    14A1     2.091419
       7B1     2.182687     7B2     2.182687     8B1     2.635117
       8B2     2.635117    15A1     2.723508     3A2     2.893189
      16A1     2.893189     9B2     3.041050     9B1     3.041050
       4A2     3.082312    17A1     3.082312    18A1     3.137617
      10B1     3.704428    10B2     3.704428    19A1     4.022014
      11B2     4.255228    11B1     4.255228    12B2     5.170068
      12B1     5.170068    20A1     5.570956     5A2     6.077247
      21A1     6.077247    22A1     6.272454     6A2     6.272455
      23A1     6.401952    13B1     6.507068    13B2     6.507068
      24A1     7.100811    14B1     7.331554    14B2     7.331554
      25A1     9.437254    26A1    16.349987

    Beta Occupied:

       1A1   -19.207457     2A1   -10.192796     3A1    -1.317047
       1B1    -0.622008     1B2    -0.622008     4A1    -0.580176
       5A1    -0.345413

    Beta Virtual:

       2B1     0.097674     2B2     0.097674     6A1     0.167913
       3B2     0.299724     3B1     0.299724     7A1     0.304746
       8A1     0.539515     4B1     0.607602     4B2     0.607602
       1A2     0.633726     9A1     0.633726    10A1     0.845809
       5B1     1.001578     5B2     1.001578    11A1     1.253933
      12A1     1.589250     2A2     1.589250     6B2     1.710621
       6B1     1.710621    13A1     1.779683    14A1     2.091419
       7B1     2.182687     7B2     2.182687     8B1     2.635117
       8B2     2.635117    15A1     2.723508     3A2     2.893189
      16A1     2.893189     9B2     3.041050     9B1     3.041050
       4A2     3.082312    17A1     3.082312    18A1     3.137617
      10B1     3.704428    10B2     3.704428    19A1     4.022014
      11B2     4.255228    11B1     4.255228    12B2     5.170068
      12B1     5.170068    20A1     5.570956     5A2     6.077247
      21A1     6.077247    22A1     6.272454     6A2     6.272455
      23A1     6.401952    13B1     6.507068    13B2     6.507068
      24A1     7.100811    14B1     7.331554    14B2     7.331554
      25A1     9.437254    26A1    16.349987

    Final Occupation by Irrep:
             A1    A2    B1    B2
    DOCC [     5,    0,    1,    1 ]
    SOCC [     0,    0,    0,    0 ]
    NA   [     5,    0,    1,    1 ]
    NB   [     5,    0,    1,    1 ]

  @DF-UKS Final Energy:  -112.88972903376360

   => Energetics <=

    Nuclear Repulsion Energy =             30.9586334012134614
    One-Electron Energy =                -213.5747999366600425
    Two-Electron Energy =                  81.3503212239988898
    DFT Exchange-Correlation Energy =     -11.6238837223159113
    Empirical Dispersion Energy =           0.0000000000000000
    VV10 Nonlocal Energy =                  0.0000000000000000
    Total Energy =                       -112.8897290337636008

  UHF NO Occupations:
  HONO-2 :    4 A1 2.0000000
  HONO-1 :    1 B2 2.0000000
  HONO-0 :    5 A1 2.0000000
  LUNO+0 :    6 A1 0.0000000
  LUNO+1 :    7 A1 0.0000000
  LUNO+2 :    8 A1 0.0000000
  LUNO+3 :    2 B1 0.0000000

Computation Completed

Properties will be evaluated at   0.000000,   0.000000,   0.000000 [a0]

Properties computed using the B3LYP density matrix

 Multipole Moments:

 ------------------------------------------------------------------------------------
     Multipole            Electronic (a.u.)      Nuclear  (a.u.)        Total (a.u.)
 ------------------------------------------------------------------------------------

 L = 1.  Multiply by 2.5417464519 to convert [e a0] to [Debye]
 Dipole X            :          0.0000000            0.0000000            0.0000000
 Dipole Y            :          0.0000000            0.0000000            0.0000000
 Dipole Z            :         -0.4221094           -0.0016899           -0.4237992
 Magnitude           :                                                    0.4237992

 L = 2.  Multiply by 1.3450342976 to convert [e a0^2] to [Debye ang]
 Quadrupole XX       :         -6.9269584            0.0000000           -6.9269584
 Quadrupole XY       :          0.0000000            0.0000000            0.0000000
 Quadrupole XZ       :          0.0000000            0.0000000            0.0000000
 Quadrupole YY       :         -6.9269584            0.0000000           -6.9269584
 Quadrupole YZ       :          0.0000000            0.0000000            0.0000000
 Quadrupole ZZ       :        -17.0475408            8.2419908           -8.8055501
 Traceless XX        :          3.3735275           -2.7473303            0.6261972
 Traceless YY        :          3.3735275           -2.7473303            0.6261972
 Traceless ZZ        :         -6.7470550            5.4946605           -1.2523945

 ------------------------------------------------------------------------------------
  ==> Computing MBIS Charges <==

  Electron Count from Grid (Expected Number): 14.00000 (14.00000)
  Difference: -0.00000

  MBIS Charges: (a.u.)
   Center  Symbol  Z      Pop.       Charge
      1       O    8    7.934983    0.065017
      2       C    6    6.065017   -0.065017

  MBIS Dipoles: [e a0]
   Center  Symbol  Z        X           Y           Z
      1       O    8   -0.000000   -0.000000   -0.013708
      2       C    6    0.000000    0.000000   -0.309286

  MBIS Quadrupoles: [e a0^2]
   Center  Symbol  Z      XX        XY        XZ        YY        YZ        ZZ
      1       O    8   -3.0156   -0.0000    0.0000   -3.0156   -0.0000   -3.4036
      2       C    6   -3.9114   -0.0000    0.0000   -3.9114    0.0000   -4.8499

  MBIS Octupoles: [e a0^3]
   Center  Symbol  Z      XXX       XXY       XXZ       XYY       XYZ       XZZ       YYY       YYZ       YZZ       ZZZ
      1       O    8   -0.0000    0.0000    0.0579   -0.0000   -0.0000   -0.0000   -0.0000    0.0579    0.0000    0.2224
      2       C    6   -0.0000    0.0000   -0.5311   -0.0000    0.0000   -0.0000    0.0000   -0.5311    0.0000   -1.3935

  MBIS Radial Moments:
   Center  Symbol  Z      [a0^2]      [a0^3]      [a0^4]
      1       O    8    9.434748   16.138538   33.220234
      2       C    6   12.672673   30.009955   84.503773

  MBIS Valence Widths: [a0]
   Center  Symbol  Z     Width
      1       O    8    0.352905
      2       C    6    0.491136

*** tstop() called on Mac.lan at Sun Aug 10 17:17:10 2025
Module time:
	user time   =       4.20 seconds =       0.07 minutes
	system time =       2.37 seconds =       0.04 minutes
	total time  =          0 seconds =       0.00 minutes
Total time:
	user time   =      19.10 seconds =       0.32 minutes
	system time =       4.43 seconds =       0.07 minutes
	total time  =          2 seconds =       0.03 minutes

    Psi4 stopped on: Sunday, 10 August 2025 05:17PM
    Psi4 wall time for execution: 0:00:02.28

*** Psi4 exiting successfully. Buy a developer a beer!
