                               Psi4 1.9.1 release

  ==> Input File <==

--------------------------------------------------------------------------
molecule {
0 3
O           0.000000           0.000000           0.000000
O           0.000000           0.000000           1.653706
}

set {
basis              cc-pvtz
reference          uks
maxiter            500
DAMPING_PERCENTAGE 1
E_CONVERGENCE      1.0E-8
D_CONVERGENCE      1.0E-8
DIIS_MAX_VECS      400
MBIS_MAXITER       8000
guess              read
}

E, wfn = energy('b3lyp', restart_file='last_wfn', return_wfn=True)
properties('b3lyp','MBIS_CHARGES', wfn=wfn)
wfn.to_file('last_wfn')
--------------------------------------------------------------------------

    Molecular point group: d2h
  Charge       = 0
  Multiplicity = 3
  Basis Set: CC-PVTZ
    Blend: CC-PVTZ
  Basis Set: (CC-PVTZ AUX)
    Blend: CC-PVTZ-JKFIT
  @DF-UKS Final Energy:  -150.26088910402842
    Total Energy =                       -150.2608891040284220
 Dipole X            :          0.0000000            0.0000000            0.0000000
 Dipole Y            :          0.0000000            0.0000000            0.0000000
 Dipole Z            :          0.0000000            0.0000000            0.0000000
 Magnitude           :                                                    0.0000000
    Molecular point group: d2h

    Geometry (in Angstrom), charge = 0, multiplicity = 3:

       Center              X                  Y                   Z               Mass
    ------------   -----------------  -----------------  -----------------  -----------------
         O            0.000000000000     0.000000000000    -0.826853000000    15.994914619570
         O            0.000000000000     0.000000000000     0.826853000000    15.994914619570

  Charge       = 0
  Multiplicity = 3
  Basis Set: CC-PVTZ
    Blend: CC-PVTZ
  Basis Set: (CC-PVTZ AUX)
    Blend: CC-PVTZ-JKFIT

    Orbital Energies [Eh]
    ---------------------

    Alpha Occupied:

       1Ag   -19.320945     1B1u  -19.320913     2Ag    -1.097472
       2B1u   -0.948520     3Ag    -0.490403     1B2u   -0.481726
       1B3u   -0.481726     1B3g   -0.399511     1B2g   -0.399511

    Alpha Virtual:

       3B1u   -0.158438     4B1u    0.483060     2B3u    0.495497
       2B2u    0.495497     4Ag     0.588243     2B2g    0.601838
       2B3g    0.601838     5Ag     0.696994     5B1u    1.087366
       3B2u    1.185748     3B3u    1.185748     1B1g    1.315690
       6Ag     1.315691     6B1u    1.466076     1Au     1.466076
       7Ag     1.469977     3B2g    1.818481     3B3g    1.818481
       7B1u    2.271453     8Ag     3.343045     4B3u    3.412833
       4B2u    3.412833     4B2g    3.521229     4B3g    3.521229
       8B1u    3.900144     5B3u    4.744530     5B2u    4.744530
       9Ag     4.777121    10Ag     4.915572     2B1g    4.915574
       6B2u    5.002237     6B3u    5.002237     5B3g    5.019531
       5B2g    5.019531     2Au     5.099791     9B1u    5.099791
       6B2g    5.347572     6B3g    5.347572    10B1u    5.603921
       3B1g    5.985032    11Ag     5.985061     7B2u    6.000771
       7B3u    6.000771     3Au     6.091178    11B1u    6.091205
      12Ag     6.274067     7B3g    6.486415     7B2g    6.486415
      13Ag     7.151302    12B1u    7.186394    13B1u    7.831040

    Beta Occupied:

       1Ag   -19.291461     1B1u  -19.291379     2Ag    -1.026178
       2B1u   -0.859640     3Ag    -0.462270     1B2u   -0.369978
       1B3u   -0.369978

    Beta Virtual:

       1B3g   -0.215138     1B2g   -0.215138     3B1u   -0.122966
       4B1u    0.496061     2B3u    0.538060     2B2u    0.538060
       4Ag     0.603891     2B2g    0.639928     2B3g    0.639928
       5Ag     0.717086     5B1u    1.117715     3B2u    1.208640
       3B3u    1.208640     1B1g    1.364551     6Ag     1.364552
       7Ag     1.496413     1Au     1.522660     6B1u    1.522660
       3B2g    1.852310     3B3g    1.852310     7B1u    2.295629
       8Ag     3.360973     4B3u    3.485942     4B2u    3.485942
       4B2g    3.596685     4B3g    3.596685     8B1u    3.929680
       5B3u    4.781023     5B2u    4.781023     9Ag     4.812142
      10Ag     4.964268     2B1g    4.964272     6B2u    5.074930
       6B3u    5.074930     5B3g    5.092587     5B2g    5.092587
       9B1u    5.150106     2Au     5.150107     6B2g    5.387177
       6B3g    5.387177    10B1u    5.635737     7B2u    6.062588
       7B3u    6.062588     3B1g    6.092574    11Ag     6.092601
       3Au     6.197591    11B1u    6.197616    12Ag     6.301421
       7B3g    6.542660     7B2g    6.542660    12B1u    7.210398
      13Ag     7.213949    13B1u    7.888521

    Final Occupation by Irrep:
             Ag   B1g   B2g   B3g    Au   B1u   B2u   B3u
    DOCC [     3,    0,    0,    0,    0,    2,    1,    1 ]
    SOCC [     0,    0,    1,    1,    0,    0,    0,    0 ]
    NA   [     3,    0,    1,    1,    0,    2,    1,    1 ]
    NB   [     3,    0,    0,    0,    0,    2,    1,    1 ]

  @DF-UKS Final Energy:  -150.26088910393358

   => Energetics <=

    Nuclear Repulsion Energy =             20.4796629406194306
    One-Electron Energy =                -247.1029877927027201
    Two-Electron Energy =                  89.9454989999233163
    DFT Exchange-Correlation Energy =     -13.5830632517735754
    Empirical Dispersion Energy =           0.0000000000000000
    VV10 Nonlocal Energy =                  0.0000000000000000
    Total Energy =                       -150.2608891039335504

  UHF NO Occupations:
  HONO-2 :    1B2u 1.9976457
  HONO-1 :    1B3g 1.0000000
  HONO-0 :    1B2g 1.0000000
  LUNO+0 :    2B3u 0.0023543
  LUNO+1 :    2B2u 0.0023543
  LUNO+2 :    3B1u 0.0005018
  LUNO+3 :    4 Ag 0.0003315

Computation Completed

Properties will be evaluated at   0.000000,   0.000000,   0.000000 [a0]

Properties computed using the B3LYP density matrix

 Multipole Moments:

 ------------------------------------------------------------------------------------
     Multipole            Electronic (a.u.)      Nuclear  (a.u.)        Total (a.u.)
 ------------------------------------------------------------------------------------

 L = 1.  Multiply by 2.5417464519 to convert [e a0] to [Debye]
 Dipole X            :          0.0000000            0.0000000            0.0000000
 Dipole Y            :          0.0000000            0.0000000            0.0000000
 Dipole Z            :          0.0000000            0.0000000            0.0000000
 Magnitude           :                                                    0.0000000

 L = 2.  Multiply by 1.3450342976 to convert [e a0^2] to [Debye ang]
 Quadrupole XX       :         -7.7804082            0.0000000           -7.7804082
 Quadrupole XY       :          0.0000000            0.0000000            0.0000000
 Quadrupole XZ       :          0.0000000            0.0000000            0.0000000
 Quadrupole YY       :         -7.7804082            0.0000000           -7.7804082
 Quadrupole YZ       :          0.0000000            0.0000000            0.0000000
 Quadrupole ZZ       :        -46.1363165           39.0637858           -7.0725307
 Traceless XX        :         12.7853028          -13.0212619           -0.2359592
 Traceless YY        :         12.7853028          -13.0212619           -0.2359592
 Traceless ZZ        :        -25.5706055           26.0425239            0.4719184

 ------------------------------------------------------------------------------------
  ==> Computing MBIS Charges <==

  Electron Count from Grid (Expected Number): 16.00000 (16.00000)
  Difference: -0.00000

  MBIS Charges: (a.u.)
   Center  Symbol  Z      Pop.       Charge
      1       O    8    7.999999    0.000001
      2       O    8    7.999999    0.000001

  MBIS Dipoles: [e a0]
   Center  Symbol  Z        X           Y           Z
      1       O    8    0.000000    0.000000   -0.042042
      2       O    8    0.000000   -0.000000    0.042042

  MBIS Quadrupoles: [e a0^2]
   Center  Symbol  Z      XX        XY        XZ        YY        YZ        ZZ
      1       O    8   -3.8902   -0.0000   -0.0000   -3.8902   -0.0000   -3.6676
      2       O    8   -3.8902   -0.0000   -0.0000   -3.8902    0.0000   -3.6676

  MBIS Octupoles: [e a0^3]
   Center  Symbol  Z      XXX       XXY       XXZ       XYY       XYZ       XZZ       YYY       YYZ       YZZ       ZZZ
      1       O    8   -0.0000   -0.0000   -0.0960    0.0000   -0.0000   -0.0000   -0.0000   -0.0960   -0.0000   -0.4235
      2       O    8   -0.0000   -0.0000    0.0960    0.0000    0.0000    0.0000   -0.0000    0.0960   -0.0000    0.4235

  MBIS Radial Moments:
   Center  Symbol  Z      [a0^2]      [a0^3]      [a0^4]
      1       O    8   11.448055   21.742045   49.501817
      2       O    8   11.448055   21.742045   49.501817

  MBIS Valence Widths: [a0]
   Center  Symbol  Z     Width
      1       O    8    0.388510
      2       O    8    0.388510

*** tstop() called on Mac.lan at Sun Aug 10 17:02:21 2025
Module time:
	user time   =       6.91 seconds =       0.12 minutes
	system time =       2.37 seconds =       0.04 minutes
	total time  =          1 seconds =       0.02 minutes
Total time:
	user time   =      18.65 seconds =       0.31 minutes
	system time =       4.72 seconds =       0.08 minutes
	total time  =          3 seconds =       0.05 minutes

    Psi4 stopped on: Sunday, 10 August 2025 05:02PM
    Psi4 wall time for execution: 0:00:02.31

*** Psi4 exiting successfully. Buy a developer a beer!
