                               Psi4 1.9.1 release

  ==> Input File <==

--------------------------------------------------------------------------
molecule {
0 2
O           0.000000           0.000000           0.000000
N           0.000000           0.000000           1.424255
}

set {
basis              cc-pvtz
reference          uks
maxiter            500
DAMPING_PERCENTAGE 1
E_CONVERGENCE      1.0E-8
D_CONVERGENCE      1.0E-8
DIIS_MAX_VECS      400
MBIS_MAXITER       8000
guess              read
}

E, wfn = energy('b3lyp', restart_file='last_wfn', return_wfn=True)
properties('b3lyp','MBIS_CHARGES', wfn=wfn)
wfn.to_file('last_wfn')
--------------------------------------------------------------------------

    Molecular point group: c2v
  Charge       = 0
  Multiplicity = 2
  Basis Set: CC-PVTZ
    Blend: CC-PVTZ
  Basis Set: (CC-PVTZ AUX)
    Blend: CC-PVTZ-JKFIT
  @DF-UKS Final Energy:  -129.85854106074248
    Total Energy =                       -129.8585410607424819
 Dipole X            :          0.0000000            0.0000000            0.0000000
 Dipole Y            :          0.0000000            0.0000000            0.0000000
 Dipole Z            :          0.2195448           -0.0054003            0.2141445
 Magnitude           :                                                    0.2141445
    Molecular point group: c2v

    Geometry (in Angstrom), charge = 0, multiplicity = 2:

       Center              X                  Y                   Z               Mass
    ------------   -----------------  -----------------  -----------------  -----------------
         O            0.000000000000     0.000000000000    -0.664842847171    15.994914619570
         N            0.000000000000     0.000000000000     0.759412152829    14.003074004430

  Charge       = 0
  Multiplicity = 2
  Basis Set: CC-PVTZ
    Blend: CC-PVTZ
  Basis Set: (CC-PVTZ AUX)
    Blend: CC-PVTZ-JKFIT

    Orbital Energies [Eh]
    ---------------------

    Alpha Occupied:

       1A1   -19.268380     2A1   -14.513674     3A1    -1.080261
       4A1    -0.747312     5A1    -0.464461     1B1    -0.464162
       1B2    -0.427225     2B1    -0.299545

    Alpha Virtual:

       2B2    -0.191113     6A1     0.058247     7A1     0.394882
       3B1     0.416422     3B2     0.422374     8A1     0.474819
       9A1     0.566703     4B1     0.597562     4B2     0.607278
       1A2     0.938746    10A1     0.940061     5B2     1.003766
       5B1     1.006051    11A1     1.138147     2A2     1.472241
      12A1     1.473598    13A1     1.502453     6B1     1.841794
       6B2     1.843217    14A1     2.031415     7B1     2.737730
       7B2     2.750732    15A1     3.011247     8B1     3.439141
       8B2     3.451686    16A1     3.708345     3A2     3.751431
      17A1     3.752868     9B1     3.776796     9B2     3.777107
      10B1     3.953160    10B2     3.954402    18A1     4.265373
       4A2     4.298402    19A1     4.302180    11B1     4.529400
      11B2     4.535560    20A1     4.733096    12B1     5.061675
      12B2     5.061935     5A2     5.192143    21A1     5.193502
      22A1     5.288679    13B1     5.709879    13B2     5.711613
       6A2     6.138977    23A1     6.142526    24A1     6.254914
      14B1     6.548514    14B2     6.556071    25A1     7.369081
      26A1     8.789455

    Beta Occupied:

       1A1   -19.267008     2A1   -14.490774     3A1    -1.067091
       4A1    -0.697760     5A1    -0.448663     1B2    -0.433179
       1B1    -0.393267

    Beta Virtual:

       2B2    -0.167281     2B1    -0.128289     6A1     0.077288
       7A1     0.401764     3B2     0.441700     3B1     0.461696
       8A1     0.493147     9A1     0.572475     4B2     0.596468
       4B1     0.616897     1A2     0.981189    10A1     0.981192
       5B2     1.011803     5B1     1.034360    11A1     1.141212
       2A2     1.478528    12A1     1.478730    13A1     1.520671
       6B2     1.840079     6B1     1.864674    14A1     2.036712
       7B2     2.787896     7B1     2.820750    15A1     3.025258
       8B2     3.439031     8B1     3.473314    16A1     3.729987
       3A2     3.792364    17A1     3.794911     9B2     3.844145
       9B1     3.844246    10B2     3.960256    10B1     3.991074
      18A1     4.275914    19A1     4.391799     4A2     4.391970
      11B2     4.561444    11B1     4.593301    20A1     4.771358
      12B2     5.063765    12B1     5.063783    21A1     5.194694
       5A2     5.195958    22A1     5.303227    13B2     5.700344
      13B1     5.731061    23A1     6.144949     6A2     6.145938
      24A1     6.258779    14B2     6.538200    14B1     6.572097
      25A1     7.376576    26A1     8.799207

    Final Occupation by Irrep:
             A1    A2    B1    B2
    DOCC [     5,    0,    1,    1 ]
    SOCC [     0,    0,    1,    0 ]
    NA   [     5,    0,    2,    1 ]
    NB   [     5,    0,    1,    1 ]

  @DF-UKS Final Energy:  -129.85854105973499

   => Energetics <=

    Nuclear Repulsion Energy =             20.8066138419875664
    One-Electron Energy =                -218.4429803266869783
    Two-Electron Energy =                  80.0441541418720419
    DFT Exchange-Correlation Energy =     -12.2663287169076138
    Empirical Dispersion Energy =           0.0000000000000000
    VV10 Nonlocal Energy =                  0.0000000000000000
    Total Energy =                       -129.8585410597349892

  UHF NO Occupations:
  HONO-2 :    1 B1 1.9989749
  HONO-1 :    1 B2 1.9664324
  HONO-0 :    2 B1 1.0000000
  LUNO+0 :    2 B2 0.0335676
  LUNO+1 :    3 B1 0.0010251
  LUNO+2 :    6 A1 0.0008110
  LUNO+3 :    7 A1 0.0002260

Computation Completed

Properties will be evaluated at   0.000000,   0.000000,   0.000000 [a0]

Properties computed using the B3LYP density matrix

 Multipole Moments:

 ------------------------------------------------------------------------------------
     Multipole            Electronic (a.u.)      Nuclear  (a.u.)        Total (a.u.)
 ------------------------------------------------------------------------------------

 L = 1.  Multiply by 2.5417464519 to convert [e a0] to [Debye]
 Dipole X            :          0.0000000            0.0000000            0.0000000
 Dipole Y            :          0.0000000            0.0000000            0.0000000
 Dipole Z            :          0.2195444           -0.0054003            0.2141441
 Magnitude           :                                                    0.2141441

 L = 2.  Multiply by 1.3450342976 to convert [e a0^2] to [Debye ang]
 Quadrupole XX       :         -8.2087543            0.0000000           -8.2087543
 Quadrupole XY       :          0.0000000            0.0000000            0.0000000
 Quadrupole XZ       :          0.0000000            0.0000000            0.0000000
 Quadrupole YY       :         -7.4600325            0.0000000           -7.4600325
 Quadrupole YZ       :          0.0000000            0.0000000            0.0000000
 Quadrupole ZZ       :        -35.1156804           27.0439447           -8.0717357
 Traceless XX        :          8.7194015           -9.0146482           -0.2952468
 Traceless YY        :          9.4681232           -9.0146482            0.4534750
 Traceless ZZ        :        -18.1875247           18.0292965           -0.1582282

 ------------------------------------------------------------------------------------
  ==> Computing MBIS Charges <==

  Electron Count from Grid (Expected Number): 15.00000 (15.00000)
  Difference: -0.00000

  MBIS Charges: (a.u.)
   Center  Symbol  Z      Pop.       Charge
      1       O    8    8.125050   -0.125050
      2       N    7    6.874949    0.125051

  MBIS Dipoles: [e a0]
   Center  Symbol  Z        X           Y           Z
      1       O    8    0.000000   -0.000000   -0.030410
      2       N    7    0.000000   -0.000000   -0.092014

  MBIS Quadrupoles: [e a0^2]
   Center  Symbol  Z      XX        XY        XZ        YY        YZ        ZZ
      1       O    8   -4.0635    0.0000    0.0000   -3.7606   -0.0000   -3.8801
      2       N    7   -4.1452    0.0000    0.0000   -3.6994    0.0000   -4.0641

  MBIS Octupoles: [e a0^3]
   Center  Symbol  Z      XXX       XXY       XXZ       XYY       XYZ       XZZ       YYY       YYZ       YZZ       ZZZ
      1       O    8    0.0000   -0.0000    0.0052    0.0000    0.0000    0.0000   -0.0000   -0.0691   -0.0000   -0.2955
      2       N    7   -0.0000   -0.0000   -0.0549   -0.0000   -0.0000    0.0000   -0.0000    0.0834    0.0000    0.2284

  MBIS Radial Moments:
   Center  Symbol  Z      [a0^2]      [a0^3]      [a0^4]
      1       O    8   11.704232   22.162813   50.240856
      2       N    7   11.908757   25.031429   62.723545

  MBIS Valence Widths: [a0]
   Center  Symbol  Z     Width
      1       O    8    0.389375
      2       N    7    0.439043

*** tstop() called on Mac.lan at Sun Aug 10 17:21:07 2025
Module time:
	user time   =       4.09 seconds =       0.07 minutes
	system time =       1.39 seconds =       0.02 minutes
	total time  =          1 seconds =       0.02 minutes
Total time:
	user time   =      22.00 seconds =       0.37 minutes
	system time =       3.71 seconds =       0.06 minutes
	total time  =          3 seconds =       0.05 minutes

    Psi4 stopped on: Sunday, 10 August 2025 05:21PM
    Psi4 wall time for execution: 0:00:02.47

*** Psi4 exiting successfully. Buy a developer a beer!
