                               Psi4 1.9.1 release

  ==> Input File <==

--------------------------------------------------------------------------
molecule {
0 3
C           0.000000           0.000000           0.000000
C           0.000000           0.000000           1.211479
}

set {
basis              cc-pvtz
reference          uks
maxiter            500
DAMPING_PERCENTAGE 1
E_CONVERGENCE      1.0E-8
D_CONVERGENCE      1.0E-8
DIIS_MAX_VECS      400
MBIS_MAXITER       8000
guess              read
}

E, wfn = energy('b3lyp', restart_file='last_wfn', return_wfn=True)
properties('b3lyp','MBIS_CHARGES', wfn=wfn)
wfn.to_file('last_wfn')
--------------------------------------------------------------------------

    Molecular point group: d2h
  Charge       = 0
  Multiplicity = 3
  Basis Set: CC-PVTZ
    Blend: CC-PVTZ
  Basis Set: (CC-PVTZ AUX)
    Blend: CC-PVTZ-JKFIT
  @DF-UKS Final Energy:   -75.93268669301814
    Total Energy =                        -75.9326866930181410
 Dipole X            :          0.0000000            0.0000000            0.0000000
 Dipole Y            :          0.0000000            0.0000000            0.0000000
 Dipole Z            :          0.0000000            0.0000000            0.0000000
 Magnitude           :                                                    0.0000000
    Molecular point group: d2h

    Geometry (in Angstrom), charge = 0, multiplicity = 3:

       Center              X                  Y                   Z               Mass
    ------------   -----------------  -----------------  -----------------  -----------------
         C            0.000000000000     0.000000000000    -0.605739500000    12.000000000000
         C            0.000000000000     0.000000000000     0.605739500000    12.000000000000

  Charge       = 0
  Multiplicity = 3
  Basis Set: CC-PVTZ
    Blend: CC-PVTZ
  Basis Set: (CC-PVTZ AUX)
    Blend: CC-PVTZ-JKFIT

    Orbital Energies [Eh]
    ---------------------

    Alpha Occupied:

       1Ag   -10.274498     1B1u  -10.272012     2Ag    -0.860486
       2B1u   -0.439951     1B3u   -0.393678     3Ag    -0.361117
       1B2u   -0.356239

    Alpha Virtual:

       1B2g   -0.024286     1B3g    0.002580     3B1u    0.183432
       2B3u    0.247835     4Ag     0.262379     2B2u    0.263210
       5Ag     0.326730     2B2g    0.364173     2B3g    0.378697
       4B1u    0.519982     1B1g    0.540984     6Ag     0.541759
       5B1u    0.659089     3B3u    0.742084     3B2u    0.765872
       1Au     0.858617     6B1u    0.859314     3B2g    1.121927
       7Ag     1.133019     3B3g    1.137116     7B1u    1.417256
       4B3u    1.873895     4B2u    1.901637     8Ag     2.035225
       4B2g    2.173431     4B3g    2.202267     8B1u    2.317684
       2B1g    2.391565     9Ag     2.392610     5B3u    2.450572
       5B2u    2.452473     6B3u    2.452992     6B2u    2.482288
      10Ag     2.714440     5B2g    2.864141     5B3g    2.864285
       3B1g    2.908663    11Ag     2.909278     6B2g    2.945209
       6B3g    2.964542     9B1u    2.991907     2Au     2.992052
      10B1u    3.306201     7B3u    3.455371     7B2u    3.481319
       3Au     3.527900    11B1u    3.528778    12Ag     3.572280
      12B1u    4.031017     7B2g    4.645546     7B3g    4.674961
      13Ag     4.929060    13B1u   13.229364

    Beta Occupied:

       1Ag   -10.257664     1B1u  -10.255611     2Ag    -0.789379
       2B1u   -0.350399     1B2u   -0.336580

    Beta Virtual:

       1B3u   -0.237521     3Ag    -0.210753     1B3g    0.024948
       1B2g    0.046958     3B1u    0.196021     2B2u    0.269269
       2B3u    0.278524     4Ag     0.283631     5Ag     0.363500
       2B3g    0.387518     2B2g    0.398057     4B1u    0.563237
       1B1g    0.570008     6Ag     0.572719     5B1u    0.694640
       3B2u    0.793632     3B3u    0.797389     1Au     0.883053
       6B1u    0.884999     3B3g    1.156729     3B2g    1.159562
       7Ag     1.172949     7B1u    1.464618     4B2u    1.915087
       4B3u    1.928097     8Ag     2.082977     4B3g    2.215175
       4B2g    2.224409     8B1u    2.366688     2B1g    2.432937
       9Ag     2.435974     5B2u    2.488331     5B3u    2.489314
       6B2u    2.518189     6B3u    2.531352    10Ag     2.788684
       5B3g    2.899309     5B2g    2.900320     3B1g    2.956733
      11Ag     2.961273     6B3g    3.012948     6B2g    3.019748
       2Au     3.037701     9B1u    3.042237    10B1u    3.363889
       7B2u    3.523507     7B3u    3.528455     3Au     3.569496
      11B1u    3.572562    12Ag     3.614110    12B1u    4.091292
       7B3g    4.705566     7B2g    4.716085    13Ag     4.971040
      13B1u   13.255747

    Final Occupation by Irrep:
             Ag   B1g   B2g   B3g    Au   B1u   B2u   B3u
    DOCC [     2,    0,    0,    0,    0,    2,    1,    0 ]
    SOCC [     1,    0,    0,    0,    0,    0,    0,    1 ]
    NA   [     3,    0,    0,    0,    0,    2,    1,    1 ]
    NB   [     2,    0,    0,    0,    0,    2,    1,    0 ]

  @DF-UKS Final Energy:   -75.93268669305372

   => Energetics <=

    Nuclear Repulsion Energy =             15.7248945991800113
    One-Electron Energy =                -132.1524869822129347
    Two-Electron Energy =                  49.1162941053043554
    DFT Exchange-Correlation Energy =      -8.6213884153251623
    Empirical Dispersion Energy =           0.0000000000000000
    VV10 Nonlocal Energy =                  0.0000000000000000
    Total Energy =                        -75.9326866930537392

  UHF NO Occupations:
  HONO-2 :    2B1u 1.9984976
  HONO-1 :    3 Ag 1.0000000
  HONO-0 :    1B3u 1.0000000
  LUNO+0 :    3B1u 0.0015024
  LUNO+1 :    4 Ag 0.0003706
  LUNO+2 :    2B2u 0.0001433
  LUNO+3 :    4B1u 0.0000006

Computation Completed

Properties will be evaluated at   0.000000,   0.000000,   0.000000 [a0]

Properties computed using the B3LYP density matrix

 Multipole Moments:

 ------------------------------------------------------------------------------------
     Multipole            Electronic (a.u.)      Nuclear  (a.u.)        Total (a.u.)
 ------------------------------------------------------------------------------------

 L = 1.  Multiply by 2.5417464519 to convert [e a0] to [Debye]
 Dipole X            :          0.0000000            0.0000000            0.0000000
 Dipole Y            :          0.0000000            0.0000000            0.0000000
 Dipole Z            :          0.0000000            0.0000000            0.0000000
 Magnitude           :                                                    0.0000000

 L = 2.  Multiply by 1.3450342976 to convert [e a0^2] to [Debye ang]
 Quadrupole XX       :         -7.6782196            0.0000000           -7.6782196
 Quadrupole XY       :          0.0000000            0.0000000            0.0000000
 Quadrupole XZ       :          0.0000000            0.0000000            0.0000000
 Quadrupole YY       :         -9.0521033            0.0000000           -9.0521033
 Quadrupole YZ       :          0.0000000            0.0000000            0.0000000
 Quadrupole ZZ       :        -24.9428079           15.7235559           -9.2192520
 Traceless XX        :          6.2128240           -5.2411853            0.9716387
 Traceless YY        :          4.8389403           -5.2411853           -0.4022450
 Traceless ZZ        :        -11.0517643           10.4823706           -0.5693937

 ------------------------------------------------------------------------------------
  ==> Computing MBIS Charges <==

  Electron Count from Grid (Expected Number): 12.00000 (12.00000)
  Difference: -0.00000

  MBIS Charges: (a.u.)
   Center  Symbol  Z      Pop.       Charge
      1       C    6    6.000000    0.000000
      2       C    6    6.000000    0.000000

  MBIS Dipoles: [e a0]
   Center  Symbol  Z        X           Y           Z
      1       C    6   -0.000000    0.000000   -0.027374
      2       C    6    0.000000    0.000000    0.027374

  MBIS Quadrupoles: [e a0^2]
   Center  Symbol  Z      XX        XY        XZ        YY        YZ        ZZ
      1       C    6   -3.8391   -0.0000    0.0000   -4.5261   -0.0000   -4.6723
      2       C    6   -3.8391    0.0000   -0.0000   -4.5261    0.0000   -4.6723

  MBIS Octupoles: [e a0^3]
   Center  Symbol  Z      XXX       XXY       XXZ       XYY       XYZ       XZZ       YYY       YYZ       YZZ       ZZZ
      1       C    6   -0.0000    0.0000    0.1284   -0.0000    0.0000   -0.0000    0.0000   -0.0806    0.0000    0.1416
      2       C    6   -0.0000    0.0000   -0.1284   -0.0000   -0.0000   -0.0000    0.0000    0.0806    0.0000   -0.1416

  MBIS Radial Moments:
   Center  Symbol  Z      [a0^2]      [a0^3]      [a0^4]
      1       C    6   13.037457   31.299795   89.844982
      2       C    6   13.037457   31.299795   89.844982

  MBIS Valence Widths: [a0]
   Center  Symbol  Z     Width
      1       C    6    0.504153
      2       C    6    0.504153

*** tstop() called on Mac.lan at Sun Aug 10 17:03:16 2025
Module time:
	user time   =       4.04 seconds =       0.07 minutes
	system time =       2.27 seconds =       0.04 minutes
	total time  =          0 seconds =       0.00 minutes
Total time:
	user time   =      17.04 seconds =       0.28 minutes
	system time =       4.54 seconds =       0.08 minutes
	total time  =          2 seconds =       0.03 minutes

    Psi4 stopped on: Sunday, 10 August 2025 05:03PM
    Psi4 wall time for execution: 0:00:02.10

*** Psi4 exiting successfully. Buy a developer a beer!
