                               Psi4 1.9.1 release

  ==> Input File <==

--------------------------------------------------------------------------
molecule {
0 2
O           0.000000           0.000000           0.000000
N           0.000000           0.000000           0.877004
}

set {
basis              cc-pvtz
reference          uks
maxiter            500
DAMPING_PERCENTAGE 1
E_CONVERGENCE      1.0E-8
D_CONVERGENCE      1.0E-8
DIIS_MAX_VECS      400
MBIS_MAXITER       8000
guess              read
}

E, wfn = energy('b3lyp', restart_file='last_wfn', return_wfn=True)
properties('b3lyp','MBIS_CHARGES', wfn=wfn)
wfn.to_file('last_wfn')
--------------------------------------------------------------------------

    Molecular point group: c2v
  Charge       = 0
  Multiplicity = 2
  Basis Set: CC-PVTZ
    Blend: CC-PVTZ
  Basis Set: (CC-PVTZ AUX)
    Blend: CC-PVTZ-JKFIT
  @DF-UKS Final Energy:  -129.64968008224488
    Total Energy =                       -129.6496800822448847
 Dipole X            :          0.0000000            0.0000000            0.0000000
 Dipole Y            :          0.0000000            0.0000000            0.0000000
 Dipole Z            :         -0.3324090           -0.0033253           -0.3357343
 Magnitude           :                                                    0.3357343
    Molecular point group: c2v

    Geometry (in Angstrom), charge = 0, multiplicity = 2:

       Center              X                  Y                   Z               Mass
    ------------   -----------------  -----------------  -----------------  -----------------
         O            0.000000000000     0.000000000000    -0.409385844768    15.994914619570
         N            0.000000000000     0.000000000000     0.467618155232    14.003074004430

  Charge       = 0
  Multiplicity = 2
  Basis Set: CC-PVTZ
    Blend: CC-PVTZ
  Basis Set: (CC-PVTZ AUX)
    Blend: CC-PVTZ-JKFIT

    Orbital Energies [Eh]
    ---------------------

    Alpha Occupied:

       1A1   -19.252509     2A1   -14.389104     3A1    -1.483178
       1B1    -0.679859     1B2    -0.661645     4A1    -0.659447
       5A1    -0.499366     2B1    -0.075758

    Alpha Virtual:

       2B2     0.028828     6A1     0.238446     3B1     0.376206
       3B2     0.378368     7A1     0.422175     8A1     0.526871
       4B1     0.604385     4B2     0.618016     1A2     0.895654
       9A1     0.897180    10A1     1.069340    11A1     1.206396
       5B1     1.289513     5B2     1.293175     2A2     1.609433
      12A1     1.610979    13A1     1.959115     6B1     2.073714
       6B2     2.077864    14A1     2.516905     7B1     2.728856
       7B2     2.738060    15A1     3.209021    16A1     3.702068
       8B1     3.719425     8B2     3.719715     9B1     3.832959
       9B2     3.840281     3A2     3.892072    17A1     3.893670
      10B1     4.182636    10B2     4.185179     4A2     4.368998
      18A1     4.372805    19A1     4.665433    11B2     4.865714
      11B1     4.866720    12B1     5.144030    12B2     5.144163
      20A1     5.748906     5A2     6.124471    21A1     6.126439
       6A2     6.238656    22A1     6.239970    13B1     6.566778
      13B2     6.567053    23A1     6.830150    24A1     7.461587
      14B1     8.104526    14B2     8.105965    25A1     9.169783
      26A1    21.674008

    Beta Occupied:

       1A1   -19.241773     2A1   -14.377158     3A1    -1.468064
       1B2    -0.652524     4A1    -0.630688     1B1    -0.615500
       5A1    -0.466602

    Beta Virtual:

       2B2     0.042148     2B1     0.078624     6A1     0.243168
       3B2     0.382327     3B1     0.402728     7A1     0.432554
       8A1     0.538492     4B2     0.624192     4B1     0.644608
       9A1     0.918155     1A2     0.918454    10A1     1.090157
      11A1     1.215119     5B2     1.296774     5B1     1.325505
       2A2     1.637821    12A1     1.638060    13A1     1.970818
       6B2     2.082226     6B1     2.105051    14A1     2.536171
       7B2     2.747482     7B1     2.782665    15A1     3.225175
      16A1     3.717333     8B2     3.752736     8B1     3.752790
       9B2     3.848196     9B1     3.880134     3A2     3.911187
      17A1     3.911832    10B2     4.189256    10B1     4.222466
      18A1     4.417953     4A2     4.418639    19A1     4.682008
      11B2     4.869567    11B1     4.899018    12B2     5.171685
      12B1     5.171700    20A1     5.763985     5A2     6.163705
      21A1     6.163839     6A2     6.261851    22A1     6.262204
      13B2     6.570846    13B1     6.599890    23A1     6.840090
      24A1     7.474540    14B2     8.111436    14B1     8.143767
      25A1     9.189785    26A1    21.689145

    Final Occupation by Irrep:
             A1    A2    B1    B2
    DOCC [     5,    0,    1,    1 ]
    SOCC [     0,    0,    1,    0 ]
    NA   [     5,    0,    2,    1 ]
    NB   [     5,    0,    1,    1 ]

  @DF-UKS Final Energy:  -129.64968008022441

   => Energetics <=

    Nuclear Repulsion Energy =             33.7899528366119242
    One-Electron Energy =                -242.5798827940333808
    Two-Electron Energy =                  91.8806627471619493
    DFT Exchange-Correlation Energy =     -12.7404128699649100
    Empirical Dispersion Energy =           0.0000000000000000
    VV10 Nonlocal Energy =                  0.0000000000000000
    Total Energy =                       -129.6496800802244138

  UHF NO Occupations:
  HONO-2 :    1 B1 1.9996865
  HONO-1 :    5 A1 1.9996864
  HONO-0 :    2 B1 1.0000000
  LUNO+0 :    6 A1 0.0003136
  LUNO+1 :    3 B1 0.0003135
  LUNO+2 :    7 A1 0.0000908
  LUNO+3 :    2 B2 0.0000180

Computation Completed

Properties will be evaluated at   0.000000,   0.000000,   0.000000 [a0]

Properties computed using the B3LYP density matrix

 Multipole Moments:

 ------------------------------------------------------------------------------------
     Multipole            Electronic (a.u.)      Nuclear  (a.u.)        Total (a.u.)
 ------------------------------------------------------------------------------------

 L = 1.  Multiply by 2.5417464519 to convert [e a0] to [Debye]
 Dipole X            :          0.0000000            0.0000000            0.0000000
 Dipole Y            :          0.0000000            0.0000000            0.0000000
 Dipole Z            :         -0.3324090           -0.0033253           -0.3357343
 Magnitude           :                                                    0.3357343

 L = 2.  Multiply by 1.3450342976 to convert [e a0^2] to [Debye ang]
 Quadrupole XX       :         -7.6373736            0.0000000           -7.6373736
 Quadrupole XY       :          0.0000000            0.0000000            0.0000000
 Quadrupole XZ       :          0.0000000            0.0000000            0.0000000
 Quadrupole YY       :         -6.5908154            0.0000000           -6.5908154
 Quadrupole YZ       :          0.0000000            0.0000000            0.0000000
 Quadrupole ZZ       :        -18.7699753           10.2541032           -8.5158722
 Traceless XX        :          3.3620145           -3.4180344           -0.0560199
 Traceless YY        :          4.4085727           -3.4180344            0.9905384
 Traceless ZZ        :         -7.7705872            6.8360688           -0.9345184

 ------------------------------------------------------------------------------------
  ==> Computing MBIS Charges <==

  Electron Count from Grid (Expected Number): 15.00000 (15.00000)
  Difference: -0.00000

  MBIS Charges: (a.u.)
   Center  Symbol  Z      Pop.       Charge
      1       O    8    7.870018    0.129982
      2       N    7    7.129982   -0.129982

  MBIS Dipoles: [e a0]
   Center  Symbol  Z        X           Y           Z
      1       O    8   -0.000000   -0.000000    0.110388
      2       N    7   -0.000000   -0.000000   -0.230703

  MBIS Quadrupoles: [e a0^2]
   Center  Symbol  Z      XX        XY        XZ        YY        YZ        ZZ
      1       O    8   -3.2766    0.0000    0.0000   -2.9883    0.0000   -3.5114
      2       N    7   -4.3608   -0.0000   -0.0000   -3.6025    0.0000   -4.4022

  MBIS Octupoles: [e a0^3]
   Center  Symbol  Z      XXX       XXY       XXZ       XYY       XYZ       XZZ       YYY       YYZ       YZZ       ZZZ
      1       O    8    0.0000    0.0000    0.2192    0.0000    0.0000   -0.0000   -0.0000    0.1479   -0.0000    0.2654
      2       N    7    0.0000   -0.0000   -0.7046    0.0000   -0.0000    0.0000   -0.0000   -0.2436   -0.0000   -0.3219

  MBIS Radial Moments:
   Center  Symbol  Z      [a0^2]      [a0^3]      [a0^4]
      1       O    8    9.776371   17.276407   36.872762
      2       N    7   12.365457   26.337308   67.297866

  MBIS Valence Widths: [a0]
   Center  Symbol  Z     Width
      1       O    8    0.361051
      2       N    7    0.433821

*** tstop() called on Mac.lan at Sun Aug 10 17:20:09 2025
Module time:
	user time   =       3.72 seconds =       0.06 minutes
	system time =       2.58 seconds =       0.04 minutes
	total time  =          1 seconds =       0.02 minutes
Total time:
	user time   =      18.30 seconds =       0.30 minutes
	system time =       4.92 seconds =       0.08 minutes
	total time  =          3 seconds =       0.05 minutes

    Psi4 stopped on: Sunday, 10 August 2025 05:20PM
    Psi4 wall time for execution: 0:00:02.25

*** Psi4 exiting successfully. Buy a developer a beer!
