                               Psi4 1.9.1 release

  ==> Input File <==

--------------------------------------------------------------------------
molecule {
0 2
N           0.000000           0.000000           0.000000
C           0.000000           0.000000           1.509245
}

set {
basis              cc-pvtz
reference          uks
maxiter            500
DAMPING_PERCENTAGE 1
E_CONVERGENCE      1.0E-8
D_CONVERGENCE      1.0E-8
DIIS_MAX_VECS      400
MBIS_MAXITER       8000
guess              read
}

E, wfn = energy('b3lyp', restart_file='last_wfn', return_wfn=True)
properties('b3lyp','MBIS_CHARGES', wfn=wfn)
wfn.to_file('last_wfn')
--------------------------------------------------------------------------

    Molecular point group: c2v
  Charge       = 0
  Multiplicity = 2
  Basis Set: CC-PVTZ
    Blend: CC-PVTZ
  Basis Set: (CC-PVTZ AUX)
    Blend: CC-PVTZ-JKFIT
  @DF-UKS Final Energy:   -92.62747378576920
    Total Energy =                        -92.6274737857691974
 Dipole X            :          0.0000000            0.0000000            0.0000000
 Dipole Y            :          0.0000000            0.0000000            0.0000000
 Dipole Z            :          0.3946470            0.0020230            0.3966700
 Magnitude           :                                                    0.3966700
    Molecular point group: c2v

    Geometry (in Angstrom), charge = 0, multiplicity = 2:

       Center              X                  Y                   Z               Mass
    ------------   -----------------  -----------------  -----------------  -----------------
         N            0.000000000000     0.000000000000    -0.696492268449    14.003074004430
         C            0.000000000000     0.000000000000     0.812752731551    12.000000000000

  Charge       = 0
  Multiplicity = 2
  Basis Set: CC-PVTZ
    Blend: CC-PVTZ
  Basis Set: (CC-PVTZ AUX)
    Blend: CC-PVTZ-JKFIT

    Orbital Energies [Eh]
    ---------------------

    Alpha Occupied:

       1A1   -14.450867     2A1   -10.370029     3A1    -0.857610
       4A1    -0.563269     5A1    -0.406438     1B2    -0.340306
       1B1    -0.340306

    Alpha Virtual:

       2B1    -0.114985     2B2    -0.114985     6A1     0.113175
       7A1     0.278602     3B2     0.292233     3B1     0.292233
       8A1     0.306324     9A1     0.433355     4B1     0.497157
       4B2     0.497157     1A2     0.629184    10A1     0.629184
       5B1     0.711703     5B2     0.711703    11A1     0.869598
      12A1     1.024581    13A1     1.082639     2A2     1.082639
       6B2     1.362353     6B1     1.362353    14A1     1.558225
       7B2     1.942647     7B1     1.942647    15A1     2.135610
       8B1     2.594765     8B2     2.594765     3A2     2.614409
      16A1     2.614410     9B2     2.627730     9B1     2.627730
      17A1     2.768337     4A2     2.892660    18A1     2.892662
      10B1     2.904136    10B2     2.904136    19A1     3.051394
      11B1     3.167412    11B2     3.167412    20A1     3.187500
      12B2     3.868737    12B1     3.868737    21A1     4.016783
       5A2     4.016784    22A1     4.189193    13B1     4.401823
      13B2     4.401823    23A1     4.438845     6A2     4.438858
      24A1     4.746020    14B1     4.872289    14B2     4.872289
      25A1     5.465025    26A1     7.543085

    Beta Occupied:

       1A1   -14.442048     2A1   -10.359495     3A1    -0.827256
       4A1    -0.499667     1B2    -0.332415     1B1    -0.332415

    Beta Virtual:

       5A1    -0.251854     2B1    -0.099558     2B2    -0.099558
       6A1     0.137634     3B2     0.297695     3B1     0.297695
       7A1     0.319883     8A1     0.332217     9A1     0.459945
       4B1     0.499458     4B2     0.499458     1A2     0.634669
      10A1     0.634669     5B1     0.738606     5B2     0.738606
      11A1     0.881546    12A1     1.061555    13A1     1.083962
       2A2     1.083962     6B2     1.387131     6B1     1.387131
      14A1     1.590656     7B2     1.952341     7B1     1.952341
      15A1     2.181856     8B1     2.617095     8B2     2.617095
       9B2     2.634725     9B1     2.634725     3A2     2.636600
      16A1     2.636601    17A1     2.818232     4A2     2.906370
      18A1     2.906372    10B1     2.929540    10B2     2.929540
      19A1     3.098077    11B2     3.207366    11B1     3.207366
      20A1     3.239326    12B2     3.865587    12B1     3.865587
      21A1     4.032056     5A2     4.032057    22A1     4.225551
      13B1     4.434894    13B2     4.434894    23A1     4.441128
       6A2     4.441141    24A1     4.806388    14B1     4.913211
      14B2     4.913211    25A1     5.491796    26A1     7.564490

    Final Occupation by Irrep:
             A1    A2    B1    B2
    DOCC [     4,    0,    1,    1 ]
    SOCC [     1,    0,    0,    0 ]
    NA   [     5,    0,    1,    1 ]
    NB   [     4,    0,    1,    1 ]

  @DF-UKS Final Energy:   -92.62747378609656

   => Energetics <=

    Nuclear Repulsion Energy =             14.7261994229830169
    One-Electron Energy =                -153.6393850295313541
    Two-Electron Energy =                  55.9199559937670259
    DFT Exchange-Correlation Energy =      -9.6342441733152580
    Empirical Dispersion Energy =           0.0000000000000000
    VV10 Nonlocal Energy =                  0.0000000000000000
    Total Energy =                        -92.6274737860965587

  UHF NO Occupations:
  HONO-2 :    1 B1 1.9993614
  HONO-1 :    4 A1 1.9966775
  HONO-0 :    5 A1 1.0000000
  LUNO+0 :    6 A1 0.0033225
  LUNO+1 :    2 B1 0.0006386
  LUNO+2 :    2 B2 0.0006386
  LUNO+3 :    7 A1 0.0002355

Computation Completed

Properties will be evaluated at   0.000000,   0.000000,   0.000000 [a0]

Properties computed using the B3LYP density matrix

 Multipole Moments:

 ------------------------------------------------------------------------------------
     Multipole            Electronic (a.u.)      Nuclear  (a.u.)        Total (a.u.)
 ------------------------------------------------------------------------------------

 L = 1.  Multiply by 2.5417464519 to convert [e a0] to [Debye]
 Dipole X            :          0.0000000            0.0000000            0.0000000
 Dipole Y            :          0.0000000            0.0000000            0.0000000
 Dipole Z            :          0.3946484            0.0020230            0.3966713
 Magnitude           :                                                    0.3966713

 L = 2.  Multiply by 1.3450342976 to convert [e a0^2] to [Debye ang]
 Quadrupole XX       :         -8.8748645            0.0000000           -8.8748645
 Quadrupole XY       :          0.0000000            0.0000000            0.0000000
 Quadrupole XZ       :          0.0000000            0.0000000            0.0000000
 Quadrupole YY       :         -8.8748645            0.0000000           -8.8748645
 Quadrupole YZ       :          0.0000000            0.0000000            0.0000000
 Quadrupole ZZ       :        -33.7458751           26.2798674           -7.4660077
 Traceless XX        :          8.2903368           -8.7599558           -0.4696189
 Traceless YY        :          8.2903368           -8.7599558           -0.4696189
 Traceless ZZ        :        -16.5806737           17.5199116            0.9392379

 ------------------------------------------------------------------------------------
  ==> Computing MBIS Charges <==

  Electron Count from Grid (Expected Number): 13.00000 (13.00000)
  Difference:  0.00000

  MBIS Charges: (a.u.)
   Center  Symbol  Z      Pop.       Charge
      1       N    7    7.176582   -0.176582
      2       C    6    5.823418    0.176582

  MBIS Dipoles: [e a0]
   Center  Symbol  Z        X           Y           Z
      1       N    7    0.000000   -0.000000   -0.268630
      2       C    6   -0.000000    0.000000    0.161678

  MBIS Quadrupoles: [e a0^2]
   Center  Symbol  Z      XX        XY        XZ        YY        YZ        ZZ
      1       N    7   -4.5354   -0.0000   -0.0000   -4.5354    0.0000   -4.3981
      2       C    6   -4.3395   -0.0000   -0.0000   -4.3395    0.0000   -4.3824

  MBIS Octupoles: [e a0^3]
   Center  Symbol  Z      XXX       XXY       XXZ       XYY       XYZ       XZZ       YYY       YYZ       YZZ       ZZZ
      1       N    7   -0.0000    0.0000   -0.4189   -0.0000    0.0000   -0.0000   -0.0000   -0.4189   -0.0000   -1.1053
      2       C    6   -0.0000    0.0000    0.4107   -0.0000   -0.0000   -0.0000    0.0000    0.4107    0.0000    0.8794

  MBIS Radial Moments:
   Center  Symbol  Z      [a0^2]      [a0^3]      [a0^4]
      1       N    7   13.468855   29.345165   76.134389
      2       C    6   13.061296   31.887540   92.453166

  MBIS Valence Widths: [a0]
   Center  Symbol  Z     Width
      1       N    7    0.454485
      2       C    6    0.517699

*** tstop() called on Mac.lan at Sun Aug 10 17:15:31 2025
Module time:
	user time   =       3.40 seconds =       0.06 minutes
	system time =       2.45 seconds =       0.04 minutes
	total time  =          1 seconds =       0.02 minutes
Total time:
	user time   =     504.08 seconds =       8.40 minutes
	system time =     158.22 seconds =       2.64 minutes
	total time  =         62 seconds =       1.03 minutes

    Psi4 stopped on: Sunday, 10 August 2025 05:15PM
    Psi4 wall time for execution: 0:01:02.08

*** Psi4 exiting successfully. Buy a developer a beer!
