                               Psi4 1.9.1 release

  ==> Input File <==

--------------------------------------------------------------------------
molecule {
0 1
N           0.000000           0.000000           0.000000
N           0.000000           0.000000           1.196005
}

set {
basis              cc-pvtz
reference          uks
maxiter            500
DAMPING_PERCENTAGE 1
E_CONVERGENCE      1.0E-8
D_CONVERGENCE      1.0E-8
DIIS_MAX_VECS      400
MBIS_MAXITER       8000
guess              read
}

E, wfn = energy('b3lyp', restart_file='last_wfn', return_wfn=True)
properties('b3lyp','MBIS_CHARGES', wfn=wfn)
wfn.to_file('last_wfn')
--------------------------------------------------------------------------

    Molecular point group: d2h
  Charge       = 0
  Multiplicity = 1
  Basis Set: CC-PVTZ
    Blend: CC-PVTZ
  Basis Set: (CC-PVTZ AUX)
    Blend: CC-PVTZ-JKFIT
  @DF-UKS Final Energy:  -109.54398802557854
    Total Energy =                       -109.5439880255785425
 Dipole X            :          0.0000000            0.0000000            0.0000000
 Dipole Y            :          0.0000000            0.0000000            0.0000000
 Dipole Z            :          0.0000000           -0.0000000           -0.0000000
 Magnitude           :                                                    0.0000000
    Molecular point group: d2h

    Geometry (in Angstrom), charge = 0, multiplicity = 1:

       Center              X                  Y                   Z               Mass
    ------------   -----------------  -----------------  -----------------  -----------------
         N            0.000000000000     0.000000000000    -0.598002500000    14.003074004430
         N            0.000000000000     0.000000000000     0.598002500000    14.003074004430

  Charge       = 0
  Multiplicity = 1
  Basis Set: CC-PVTZ
    Blend: CC-PVTZ
  Basis Set: (CC-PVTZ AUX)
    Blend: CC-PVTZ-JKFIT

    Orbital Energies [Eh]
    ---------------------

    Alpha Occupied:

       1Ag   -14.447235     1B1u  -14.446409     2Ag    -1.072485
       2B1u   -0.581790     1B2u   -0.440762     1B3u   -0.440762
       3Ag    -0.429501

    Alpha Virtual:

       1B3g   -0.070332     1B2g   -0.070332     3B1u    0.272160
       2B2u    0.400256     2B3u    0.400256     4Ag     0.421010
       5Ag     0.482361     2B3g    0.520936     2B2g    0.520936
       4B1u    0.562831     1B1g    0.842473     6Ag     0.842473
       5B1u    0.843158     3B2u    1.035555     3B3u    1.035555
       1Au     1.230383     6B1u    1.230383     3B2g    1.660399
       3B3g    1.660399     7Ag     1.673186     7B1u    1.756866
       4B2u    2.730813     4B3u    2.730813     8Ag     2.869325
       4B3g    2.999748     4B2g    2.999748     2B1g    3.444636
       9Ag     3.444636     8B1u    3.454440     5B2u    3.535346
       5B3u    3.535346     6B2u    3.650638     6B3u    3.650638
      10Ag     3.837617     5B3g    4.008197     5B2g    4.008197
       3B1g    4.336443    11Ag     4.336446     9B1u    4.394724
       2Au     4.442607    10B1u    4.442610     6B2g    4.552154
       6B3g    4.552154     3Au     4.730085    11B1u    4.730087
       7B2u    4.857001     7B3u    4.857001    12Ag     5.265531
      12B1u    5.392782    13Ag     5.902429     7B3g    6.009333
       7B2g    6.009333    13B1u   12.836035

    Beta Occupied:

       1Ag   -14.447235     1B1u  -14.446409     2Ag    -1.072485
       2B1u   -0.581790     1B2u   -0.440762     1B3u   -0.440762
       3Ag    -0.429501

    Beta Virtual:

       1B3g   -0.070332     1B2g   -0.070332     3B1u    0.272160
       2B2u    0.400256     2B3u    0.400256     4Ag     0.421010
       5Ag     0.482361     2B3g    0.520936     2B2g    0.520936
       4B1u    0.562831     1B1g    0.842473     6Ag     0.842473
       5B1u    0.843158     3B2u    1.035555     3B3u    1.035555
       1Au     1.230383     6B1u    1.230383     3B2g    1.660399
       3B3g    1.660399     7Ag     1.673186     7B1u    1.756866
       4B2u    2.730813     4B3u    2.730813     8Ag     2.869325
       4B3g    2.999748     4B2g    2.999748     2B1g    3.444636
       9Ag     3.444636     8B1u    3.454440     5B2u    3.535346
       5B3u    3.535346     6B2u    3.650638     6B3u    3.650638
      10Ag     3.837617     5B3g    4.008197     5B2g    4.008197
       3B1g    4.336443    11Ag     4.336446     9B1u    4.394724
       2Au     4.442607    10B1u    4.442610     6B2g    4.552154
       6B3g    4.552154     3Au     4.730085    11B1u    4.730087
       7B2u    4.857001     7B3u    4.857001    12Ag     5.265531
      12B1u    5.392782    13Ag     5.902429     7B3g    6.009333
       7B2g    6.009333    13B1u   12.836035

    Final Occupation by Irrep:
             Ag   B1g   B2g   B3g    Au   B1u   B2u   B3u
    DOCC [     3,    0,    0,    0,    0,    2,    1,    1 ]
    SOCC [     0,    0,    0,    0,    0,    0,    0,    0 ]
    NA   [     3,    0,    0,    0,    0,    2,    1,    1 ]
    NB   [     3,    0,    0,    0,    0,    2,    1,    1 ]

  @DF-UKS Final Energy:  -109.54398802561414

   => Energetics <=

    Nuclear Repulsion Energy =             21.6802465899640922
    One-Electron Energy =                -190.8200042082820005
    Two-Electron Energy =                  70.5870300536816870
    DFT Exchange-Correlation Energy =     -10.9912604609779265
    Empirical Dispersion Energy =           0.0000000000000000
    VV10 Nonlocal Energy =                  0.0000000000000000
    Total Energy =                       -109.5439880256141407

  UHF NO Occupations:
  HONO-2 :    2B1u 2.0000000
  HONO-1 :    3 Ag 2.0000000
  HONO-0 :    1B3u 2.0000000
  LUNO+0 :    3B1u 0.0000000
  LUNO+1 :    4B1u 0.0000000
  LUNO+2 :    4 Ag 0.0000000
  LUNO+3 :    2B3u 0.0000000

Computation Completed

Properties will be evaluated at   0.000000,   0.000000,   0.000000 [a0]

Properties computed using the B3LYP density matrix

 Multipole Moments:

 ------------------------------------------------------------------------------------
     Multipole            Electronic (a.u.)      Nuclear  (a.u.)        Total (a.u.)
 ------------------------------------------------------------------------------------

 L = 1.  Multiply by 2.5417464519 to convert [e a0] to [Debye]
 Dipole X            :          0.0000000            0.0000000            0.0000000
 Dipole Y            :          0.0000000            0.0000000            0.0000000
 Dipole Z            :          0.0000000           -0.0000000           -0.0000000
 Magnitude           :                                                    0.0000000

 L = 2.  Multiply by 1.3450342976 to convert [e a0^2] to [Debye ang]
 Quadrupole XX       :         -7.7520594            0.0000000           -7.7520594
 Quadrupole XY       :          0.0000000            0.0000000            0.0000000
 Quadrupole XZ       :          0.0000000            0.0000000            0.0000000
 Quadrupole YY       :         -7.7520594            0.0000000           -7.7520594
 Quadrupole YZ       :          0.0000000            0.0000000            0.0000000
 Quadrupole ZZ       :        -26.6155139           17.8785284           -8.7369854
 Traceless XX        :          6.2878181           -5.9595095            0.3283087
 Traceless YY        :          6.2878181           -5.9595095            0.3283087
 Traceless ZZ        :        -12.5756363           11.9190190           -0.6566173

 ------------------------------------------------------------------------------------
  ==> Computing MBIS Charges <==

  Electron Count from Grid (Expected Number): 14.00000 (14.00000)
  Difference:  0.00000

  MBIS Charges: (a.u.)
   Center  Symbol  Z      Pop.       Charge
      1       N    7    7.000000   -0.000000
      2       N    7    7.000000   -0.000000

  MBIS Dipoles: [e a0]
   Center  Symbol  Z        X           Y           Z
      1       N    7   -0.000000   -0.000000    0.040657
      2       N    7    0.000000   -0.000000   -0.040657

  MBIS Quadrupoles: [e a0^2]
   Center  Symbol  Z      XX        XY        XZ        YY        YZ        ZZ
      1       N    7   -3.8760    0.0000   -0.0000   -3.8760   -0.0000   -4.2766
      2       N    7   -3.8760    0.0000    0.0000   -3.8760    0.0000   -4.2766

  MBIS Octupoles: [e a0^3]
   Center  Symbol  Z      XXX       XXY       XXZ       XYY       XYZ       XZZ       YYY       YYZ       YZZ       ZZZ
      1       N    7   -0.0000   -0.0000   -0.0179   -0.0000    0.0000   -0.0000   -0.0000   -0.0179   -0.0000    0.0225
      2       N    7   -0.0000   -0.0000    0.0179   -0.0000   -0.0000    0.0000   -0.0000    0.0179   -0.0000   -0.0225

  MBIS Radial Moments:
   Center  Symbol  Z      [a0^2]      [a0^3]      [a0^4]
      1       N    7   12.028663   25.042682   62.155894
      2       N    7   12.028663   25.042682   62.155894

  MBIS Valence Widths: [a0]
   Center  Symbol  Z     Width
      1       N    7    0.435781
      2       N    7    0.435781

*** tstop() called on Mac.lan at Sun Aug 10 17:06:37 2025
Module time:
	user time   =       3.62 seconds =       0.06 minutes
	system time =       2.39 seconds =       0.04 minutes
	total time  =          1 seconds =       0.02 minutes
Total time:
	user time   =      15.15 seconds =       0.25 minutes
	system time =       4.92 seconds =       0.08 minutes
	total time  =          2 seconds =       0.03 minutes

    Psi4 stopped on: Sunday, 10 August 2025 05:06PM
    Psi4 wall time for execution: 0:00:01.96

*** Psi4 exiting successfully. Buy a developer a beer!
