                               Psi4 1.9.1 release

  ==> Input File <==

--------------------------------------------------------------------------
molecule {
0 3
C           0.000000           0.000000           0.000000
C           0.000000           0.000000           0.852818
}

set {
basis              cc-pvtz
reference          uks
maxiter            500
DAMPING_PERCENTAGE 1
E_CONVERGENCE      1.0E-8
D_CONVERGENCE      1.0E-8
DIIS_MAX_VECS      400
MBIS_MAXITER       8000
guess              read
}

E, wfn = energy('b3lyp', restart_file='last_wfn', return_wfn=True)
properties('b3lyp','MBIS_CHARGES', wfn=wfn)
wfn.to_file('last_wfn')
--------------------------------------------------------------------------

    Molecular point group: d2h
  Charge       = 0
  Multiplicity = 3
  Basis Set: CC-PVTZ
    Blend: CC-PVTZ
  Basis Set: (CC-PVTZ AUX)
    Blend: CC-PVTZ-JKFIT
  @DF-UKS Final Energy:   -75.42509214648163
    Total Energy =                        -75.4250921464816315
 Dipole X            :          0.0000000            0.0000000            0.0000000
 Dipole Y            :          0.0000000            0.0000000            0.0000000
 Dipole Z            :          0.0000000            0.0000000            0.0000000
 Magnitude           :                                                    0.0000000
    Molecular point group: d2h

    Geometry (in Angstrom), charge = 0, multiplicity = 3:

       Center              X                  Y                   Z               Mass
    ------------   -----------------  -----------------  -----------------  -----------------
         C            0.000000000000     0.000000000000    -0.426409000000    12.000000000000
         C            0.000000000000     0.000000000000     0.426409000000    12.000000000000

  Charge       = 0
  Multiplicity = 3
  Basis Set: CC-PVTZ
    Blend: CC-PVTZ
  Basis Set: (CC-PVTZ AUX)
    Blend: CC-PVTZ-JKFIT

    Orbital Energies [Eh]
    ---------------------

    Alpha Occupied:

       1Ag   -10.204560     1B1u  -10.154740     2Ag    -0.822562
       1B2u   -0.420666     1B3u   -0.420666     2B1u   -0.389985
       3Ag    -0.372302

    Alpha Virtual:

       1B2g    0.122056     1B3g    0.122056     3B1u    0.181041
       4Ag     0.239503     2B2u    0.241812     2B3u    0.241812
       5Ag     0.374006     2B2g    0.452762     2B3g    0.452762
       1B1g    0.588984     6Ag     0.588984     4B1u    0.625192
       3B2u    0.885796     3B3u    0.885796     5B1u    0.922315
       1Au     0.950289     6B1u    0.950289     7Ag     1.052586
       3B3g    1.164644     3B2g    1.164644     4B2u    1.790743
       4B3u    1.790743     7B1u    2.172612     8Ag     2.256853
       4B3g    2.428918     4B2g    2.428918     5B3u    2.452299
       5B2u    2.452299     9Ag     2.520882     2B1g    2.520882
       8B1u    2.562449     6B2u    2.714461     6B3u    2.714461
      10Ag     2.859962     2Au     2.918593     9B1u    2.918593
       5B3g    3.042842     5B2g    3.042842     3B1g    3.091604
      11Ag     3.091604     6B2g    3.124163     6B3g    3.124163
      12Ag     3.465607    10B1u    3.641209     7B2u    4.069941
       7B3u    4.069941    11B1u    4.280242     3Au     4.280242
       7B3g    5.484266     7B2g    5.484266    12B1u    5.664334
      13Ag     6.124702    13B1u   19.227490

    Beta Occupied:

       1Ag   -10.180447     1B1u  -10.132040     2Ag    -0.778771
       1B2u   -0.393543     1B3u   -0.393543

    Beta Virtual:

       2B1u   -0.175692     3Ag    -0.143393     1B2g    0.158896
       1B3g    0.158896     3B1u    0.213518     2B2u    0.248498
       2B3u    0.248498     4Ag     0.276542     5Ag     0.428370
       2B2g    0.487313     2B3g    0.487313     1B1g    0.597983
       6Ag     0.597984     4B1u    0.672649     3B2u    0.937951
       3B3u    0.937951     1Au     0.971996     5B1u    0.971996
       6B1u    0.989089     7Ag     1.124034     3B3g    1.199220
       3B2g    1.199220     4B2u    1.805888     4B3u    1.805888
       7B1u    2.297705     8Ag     2.302559     4B3g    2.455821
       4B2g    2.455821     5B3u    2.462759     5B2u    2.462759
       2B1g    2.530216     9Ag     2.530217     8B1u    2.608551
       6B3u    2.815420     6B2u    2.815420     2Au     2.979162
       9B1u    2.979166    10Ag     3.005784     5B3g    3.139160
       5B2g    3.139160     6B2g    3.148867     6B3g    3.148867
       3B1g    3.151889    11Ag     3.151892    12Ag     3.536500
      10B1u    3.755751     7B2u    4.137821     7B3u    4.137821
       3Au     4.311869    11B1u    4.311873     7B3g    5.550252
       7B2g    5.550252    12B1u    5.744715    13Ag     6.178653
      13B1u   19.274486

    Final Occupation by Irrep:
             Ag   B1g   B2g   B3g    Au   B1u   B2u   B3u
    DOCC [     2,    0,    0,    0,    0,    1,    1,    1 ]
    SOCC [     1,    0,    0,    0,    0,    1,    0,    0 ]
    NA   [     3,    0,    0,    0,    0,    2,    1,    1 ]
    NB   [     2,    0,    0,    0,    0,    1,    1,    1 ]

  @DF-UKS Final Energy:   -75.42509214592626

   => Energetics <=

    Nuclear Repulsion Energy =             22.3381537257890841
    One-Electron Energy =                -144.3813573640666164
    Two-Electron Energy =                  55.6247125841313661
    DFT Exchange-Correlation Energy =      -9.0066010917800927
    Empirical Dispersion Energy =           0.0000000000000000
    VV10 Nonlocal Energy =                  0.0000000000000000
    Total Energy =                        -75.4250921459262571

  UHF NO Occupations:
  HONO-2 :    2 Ag 1.9996205
  HONO-1 :    3 Ag 1.0000000
  HONO-0 :    2B1u 1.0000000
  LUNO+0 :    4 Ag 0.0003795
  LUNO+1 :    2B2u 0.0003620
  LUNO+2 :    2B3u 0.0003620
  LUNO+3 :    3B1u 0.0000009

Computation Completed

Properties will be evaluated at   0.000000,   0.000000,   0.000000 [a0]

Properties computed using the B3LYP density matrix

 Multipole Moments:

 ------------------------------------------------------------------------------------
     Multipole            Electronic (a.u.)      Nuclear  (a.u.)        Total (a.u.)
 ------------------------------------------------------------------------------------

 L = 1.  Multiply by 2.5417464519 to convert [e a0] to [Debye]
 Dipole X            :          0.0000000            0.0000000            0.0000000
 Dipole Y            :          0.0000000            0.0000000            0.0000000
 Dipole Z            :          0.0000000            0.0000000            0.0000000
 Magnitude           :                                                    0.0000000

 L = 2.  Multiply by 1.3450342976 to convert [e a0^2] to [Debye ang]
 Quadrupole XX       :         -7.6338695            0.0000000           -7.6338695
 Quadrupole XY       :          0.0000000            0.0000000            0.0000000
 Quadrupole XZ       :          0.0000000            0.0000000            0.0000000
 Quadrupole YY       :         -7.6338695            0.0000000           -7.6338695
 Quadrupole YZ       :          0.0000000            0.0000000            0.0000000
 Quadrupole ZZ       :        -14.7128915            7.7916907           -6.9212008
 Traceless XX        :          2.3596740           -2.5972302           -0.2375562
 Traceless YY        :          2.3596740           -2.5972302           -0.2375562
 Traceless ZZ        :         -4.7193480            5.1944605            0.4751125

 ------------------------------------------------------------------------------------
  ==> Computing MBIS Charges <==

  Electron Count from Grid (Expected Number): 12.00000 (12.00000)
  Difference:  0.00000

  MBIS Charges: (a.u.)
   Center  Symbol  Z      Pop.       Charge
      1       C    6    6.000000   -0.000000
      2       C    6    6.000000   -0.000000

  MBIS Dipoles: [e a0]
   Center  Symbol  Z        X           Y           Z
      1       C    6   -0.000000    0.000000   -0.293317
      2       C    6   -0.000000    0.000000    0.293317

  MBIS Quadrupoles: [e a0^2]
   Center  Symbol  Z      XX        XY        XZ        YY        YZ        ZZ
      1       C    6   -3.8169    0.0000    0.0000   -3.8169   -0.0000   -3.9333
      2       C    6   -3.8169    0.0000   -0.0000   -3.8169    0.0000   -3.9333

  MBIS Octupoles: [e a0^3]
   Center  Symbol  Z      XXX       XXY       XXZ       XYY       XYZ       XZZ       YYY       YYZ       YZZ       ZZZ
      1       C    6   -0.0000   -0.0000   -0.1534   -0.0000    0.0000   -0.0000    0.0000   -0.1534    0.0000    0.1000
      2       C    6   -0.0000   -0.0000    0.1534   -0.0000   -0.0000   -0.0000    0.0000    0.1534    0.0000   -0.1000

  MBIS Radial Moments:
   Center  Symbol  Z      [a0^2]      [a0^3]      [a0^4]
      1       C    6   11.567178   26.437171   72.907489
      2       C    6   11.567178   26.437171   72.907489

  MBIS Valence Widths: [a0]
   Center  Symbol  Z     Width
      1       C    6    0.470780
      2       C    6    0.470780

*** tstop() called on Mac.lan at Sun Aug 10 17:03:54 2025
Module time:
	user time   =       3.89 seconds =       0.06 minutes
	system time =       2.33 seconds =       0.04 minutes
	total time  =          0 seconds =       0.00 minutes
Total time:
	user time   =      16.52 seconds =       0.28 minutes
	system time =       4.23 seconds =       0.07 minutes
	total time  =          2 seconds =       0.03 minutes

    Psi4 stopped on: Sunday, 10 August 2025 05:03PM
    Psi4 wall time for execution: 0:00:02.02

*** Psi4 exiting successfully. Buy a developer a beer!
