                               Psi4 1.9.1 release

  ==> Input File <==

--------------------------------------------------------------------------
molecule {
0 3
C           0.000000           0.000000           0.000000
C           0.000000           0.000000           1.044104
}

set {
basis              cc-pvtz
reference          uks
maxiter            500
DAMPING_PERCENTAGE 1
E_CONVERGENCE      1.0E-8
D_CONVERGENCE      1.0E-8
DIIS_MAX_VECS      400
MBIS_MAXITER       8000
guess              read
}

E, wfn = energy('b3lyp', restart_file='last_wfn', return_wfn=True)
properties('b3lyp','MBIS_CHARGES', wfn=wfn)
wfn.to_file('last_wfn')
--------------------------------------------------------------------------

    Molecular point group: d2h
  Charge       = 0
  Multiplicity = 3
  Basis Set: CC-PVTZ
    Blend: CC-PVTZ
  Basis Set: (CC-PVTZ AUX)
    Blend: CC-PVTZ-JKFIT
  @DF-UKS Final Energy:   -75.80925991763519
    Total Energy =                        -75.8092599176351740
 Dipole X            :          0.0000000            0.0000000            0.0000000
 Dipole Y            :          0.0000000            0.0000000            0.0000000
 Dipole Z            :          0.0000000            0.0000000            0.0000000
 Magnitude           :                                                    0.0000000
    Molecular point group: d2h

    Geometry (in Angstrom), charge = 0, multiplicity = 3:

       Center              X                  Y                   Z               Mass
    ------------   -----------------  -----------------  -----------------  -----------------
         C            0.000000000000     0.000000000000    -0.522052000000    12.000000000000
         C            0.000000000000     0.000000000000     0.522052000000    12.000000000000

  Charge       = 0
  Multiplicity = 3
  Basis Set: CC-PVTZ
    Blend: CC-PVTZ
  Basis Set: (CC-PVTZ AUX)
    Blend: CC-PVTZ-JKFIT

    Orbital Energies [Eh]
    ---------------------

    Alpha Occupied:

       1Ag   -10.245447     1B1u  -10.235631     2Ag    -0.910240
       1B3u   -0.440327     2B1u   -0.409639     1B2u   -0.397912
       3Ag    -0.364106

    Alpha Virtual:

       1B2g    0.031663     1B3g    0.056806     3B1u    0.186795
       2B3u    0.231860     2B2u    0.247361     4Ag     0.252614
       5Ag     0.337682     2B2g    0.384353     2B3g    0.400995
       1B1g    0.539113     6Ag     0.539958     4B1u    0.572119
       5B1u    0.800341     3B3u    0.805997     3B2u    0.828837
       1Au     0.894684     6B1u    0.896194     7Ag     1.102212
       3B2g    1.131486     3B3g    1.146431     7B1u    1.732214
       4B3u    1.821034     4B2u    1.852607     8Ag     2.125964
       4B2g    2.280071     4B3g    2.309117     8B1u    2.358614
       5B3u    2.409485     5B2u    2.409639     2B1g    2.419643
       9Ag     2.421193     6B3u    2.565740     6B2u    2.598103
      10Ag     2.789380     5B2g    2.909140     5B3g    2.929299
       6B2g    2.958809     6B3g    2.959540     3B1g    2.964122
      11Ag     2.965012     2Au     2.979937     9B1u    2.979972
      12Ag     3.484202    10B1u    3.491037     7B3u    3.653133
       7B2u    3.680686     3Au     3.803047    11B1u    3.803541
      12B1u    4.524822     7B2g    5.031415     7B3g    5.062623
      13Ag     5.752913    13B1u   16.623904

    Beta Occupied:

       1Ag   -10.227114     1B1u  -10.218170     2Ag    -0.831615
       1B2u   -0.375960     2B1u   -0.320410

    Beta Virtual:

       1B3u   -0.269812     3Ag    -0.212122     1B3g    0.078483
       1B2g    0.094278     3B1u    0.199667     2B2u    0.253781
       2B3u    0.262247     4Ag     0.272480     5Ag     0.376000
       2B3g    0.412779     2B2g    0.425076     1B1g    0.569675
       6Ag     0.572557     4B1u    0.600356     5B1u    0.843313
       3B2u    0.855805     3B3u    0.857369     1Au     0.918628
       6B1u    0.920472     7Ag     1.141868     3B3g    1.163968
       3B2g    1.167319     7B1u    1.791894     4B2u    1.867882
       4B3u    1.880903     8Ag     2.174455     4B3g    2.322985
       4B2g    2.331422     8B1u    2.405432     5B2u    2.447631
       5B3u    2.448764     2B1g    2.463463     9Ag     2.467315
       6B2u    2.640579     6B3u    2.653517    10Ag     2.864266
       5B3g    2.977186     5B2g    2.980862     6B3g    2.994673
       6B2g    2.996055     3B1g    3.014472    11Ag     3.018709
       2Au     3.028372     9B1u    3.032662    12Ag     3.525846
      10B1u    3.549406     7B2u    3.718885     7B3u    3.722016
       3Au     3.845166    11B1u    3.848867    12B1u    4.583773
       7B3g    5.095822     7B2g    5.107105    13Ag     5.796361
      13B1u   16.650116

    Final Occupation by Irrep:
             Ag   B1g   B2g   B3g    Au   B1u   B2u   B3u
    DOCC [     2,    0,    0,    0,    0,    2,    1,    0 ]
    SOCC [     1,    0,    0,    0,    0,    0,    0,    1 ]
    NA   [     3,    0,    0,    0,    0,    2,    1,    1 ]
    NB   [     2,    0,    0,    0,    0,    2,    1,    0 ]

  @DF-UKS Final Energy:   -75.80925991784576

   => Energetics <=

    Nuclear Repulsion Energy =             18.2456724465378848
    One-Electron Energy =                -136.8219669180294886
    Two-Electron Energy =                  51.5271225954841299
    DFT Exchange-Correlation Energy =      -8.7600880418382907
    Empirical Dispersion Energy =           0.0000000000000000
    VV10 Nonlocal Energy =                  0.0000000000000000
    Total Energy =                        -75.8092599178457647

  UHF NO Occupations:
  HONO-2 :    2B1u 1.9984079
  HONO-1 :    1B3u 1.0000000
  HONO-0 :    3 Ag 1.0000000
  LUNO+0 :    3B1u 0.0015921
  LUNO+1 :    4 Ag 0.0003827
  LUNO+2 :    2B2u 0.0001230
  LUNO+3 :    4B1u 0.0000007

Computation Completed

Properties will be evaluated at   0.000000,   0.000000,   0.000000 [a0]

Properties computed using the B3LYP density matrix

 Multipole Moments:

 ------------------------------------------------------------------------------------
     Multipole            Electronic (a.u.)      Nuclear  (a.u.)        Total (a.u.)
 ------------------------------------------------------------------------------------

 L = 1.  Multiply by 2.5417464519 to convert [e a0] to [Debye]
 Dipole X            :          0.0000000            0.0000000            0.0000000
 Dipole Y            :          0.0000000            0.0000000            0.0000000
 Dipole Z            :          0.0000000            0.0000000            0.0000000
 Magnitude           :                                                    0.0000000

 L = 2.  Multiply by 1.3450342976 to convert [e a0^2] to [Debye ang]
 Quadrupole XX       :         -7.2912291            0.0000000           -7.2912291
 Quadrupole XY       :          0.0000000            0.0000000            0.0000000
 Quadrupole XZ       :          0.0000000            0.0000000            0.0000000
 Quadrupole YY       :         -8.5126531            0.0000000           -8.5126531
 Quadrupole YZ       :          0.0000000            0.0000000            0.0000000
 Quadrupole ZZ       :        -20.9709639           11.6790229           -9.2919410
 Traceless XX        :          4.9670529           -3.8930076            1.0740453
 Traceless YY        :          3.7456289           -3.8930076           -0.1473787
 Traceless ZZ        :         -8.7126818            7.7860152           -0.9266666

 ------------------------------------------------------------------------------------
  ==> Computing MBIS Charges <==

  Electron Count from Grid (Expected Number): 12.00000 (12.00000)
  Difference: -0.00000

  MBIS Charges: (a.u.)
   Center  Symbol  Z      Pop.       Charge
      1       C    6    6.000000    0.000000
      2       C    6    6.000000    0.000000

  MBIS Dipoles: [e a0]
   Center  Symbol  Z        X           Y           Z
      1       C    6   -0.000000    0.000000    0.026250
      2       C    6   -0.000000    0.000000   -0.026250

  MBIS Quadrupoles: [e a0^2]
   Center  Symbol  Z      XX        XY        XZ        YY        YZ        ZZ
      1       C    6   -3.6456   -0.0000   -0.0000   -4.2563   -0.0000   -4.5942
      2       C    6   -3.6456   -0.0000    0.0000   -4.2563    0.0000   -4.5942

  MBIS Octupoles: [e a0^3]
   Center  Symbol  Z      XXX       XXY       XXZ       XYY       XYZ       XZZ       YYY       YYZ       YZZ       ZZZ
      1       C    6   -0.0000    0.0000    0.2639   -0.0000    0.0000   -0.0000    0.0000    0.0881    0.0000    0.5935
      2       C    6   -0.0000    0.0000   -0.2639   -0.0000    0.0000   -0.0000    0.0000   -0.0881    0.0000   -0.5935

  MBIS Radial Moments:
   Center  Symbol  Z      [a0^2]      [a0^3]      [a0^4]
      1       C    6   12.496118   29.526447   83.723735
      2       C    6   12.496118   29.526447   83.723735

  MBIS Valence Widths: [a0]
   Center  Symbol  Z     Width
      1       C    6    0.491746
      2       C    6    0.491746

*** tstop() called on Mac.lan at Sun Aug 10 17:03:34 2025
Module time:
	user time   =       4.00 seconds =       0.07 minutes
	system time =       2.50 seconds =       0.04 minutes
	total time  =          1 seconds =       0.02 minutes
Total time:
	user time   =      16.36 seconds =       0.27 minutes
	system time =       5.09 seconds =       0.08 minutes
	total time  =          2 seconds =       0.03 minutes

    Psi4 stopped on: Sunday, 10 August 2025 05:03PM
    Psi4 wall time for execution: 0:00:02.10

*** Psi4 exiting successfully. Buy a developer a beer!
