                               Psi4 1.9.1 release

  ==> Input File <==

--------------------------------------------------------------------------
molecule {
0 3
O           0.000000           0.000000           0.000000
O           0.000000           0.000000           1.122158
}

set {
basis              cc-pvtz
reference          uks
maxiter            500
DAMPING_PERCENTAGE 1
E_CONVERGENCE      1.0E-8
D_CONVERGENCE      1.0E-8
DIIS_MAX_VECS      400
MBIS_MAXITER       8000
guess              read
}

E, wfn = energy('b3lyp', restart_file='last_wfn', return_wfn=True)
properties('b3lyp','MBIS_CHARGES', wfn=wfn)
wfn.to_file('last_wfn')
--------------------------------------------------------------------------

    Molecular point group: d2h
  Charge       = 0
  Multiplicity = 3
  Basis Set: CC-PVTZ
    Blend: CC-PVTZ
  Basis Set: (CC-PVTZ AUX)
    Blend: CC-PVTZ-JKFIT
  @DF-UKS Final Energy:  -150.36865081554592
    Total Energy =                       -150.3686508155459194
 Dipole X            :          0.0000000            0.0000000            0.0000000
 Dipole Y            :          0.0000000            0.0000000            0.0000000
 Dipole Z            :          0.0000000            0.0000000            0.0000000
 Magnitude           :                                                    0.0000000
    Molecular point group: d2h

    Geometry (in Angstrom), charge = 0, multiplicity = 3:

       Center              X                  Y                   Z               Mass
    ------------   -----------------  -----------------  -----------------  -----------------
         O            0.000000000000     0.000000000000    -0.561079000000    15.994914619570
         O            0.000000000000     0.000000000000     0.561079000000    15.994914619570

  Charge       = 0
  Multiplicity = 3
  Basis Set: CC-PVTZ
    Blend: CC-PVTZ
  Basis Set: (CC-PVTZ AUX)
    Blend: CC-PVTZ-JKFIT

    Orbital Energies [Eh]
    ---------------------

    Alpha Occupied:

       1Ag   -19.279148     1B1u  -19.278755     2Ag    -1.381818
       2B1u   -0.815020     1B2u   -0.599555     1B3u   -0.599555
       3Ag    -0.566725     1B3g   -0.281975     1B2g   -0.281975

    Alpha Virtual:

       3B1u    0.264808     2B2u    0.487982     2B3u    0.487982
       4Ag     0.536641     4B1u    0.549814     2B2g    0.616121
       2B3g    0.616121     5Ag     0.652029     1B1g    1.179305
       6Ag     1.179305     5B1u    1.184634     3B3u    1.337550
       3B2u    1.337550     1Au     1.633688     6B1u    1.633688
       7Ag     2.157324     7B1u    2.160426     3B2g    2.204238
       3B3g    2.204238     4B2u    3.399299     4B3u    3.399299
       8Ag     3.618977     4B3g    3.725062     4B2g    3.725062
       2B1g    4.514337     9Ag     4.514337     5B2u    4.662554
       5B3u    4.662554     8B1u    4.664481     6B3u    4.823873
       6B2u    4.823873    10Ag     5.006468     5B2g    5.171937
       5B3g    5.171937     9B1u    5.626744    10B1u    5.849894
       2Au     5.849894    11Ag     5.988648     3B1g    5.988654
      11B1u    6.236582     3Au     6.236587     6B2g    6.310945
       6B3g    6.310945     7B3u    6.489931     7B2u    6.489931
      12B1u    6.917619    12Ag     7.064749     7B3g    7.472197
       7B2g    7.472197    13Ag     7.575142    13B1u   14.354009

    Beta Occupied:

       1Ag   -19.248810     1B1u  -19.248252     2Ag    -1.329544
       2B1u   -0.726885     3Ag    -0.524898     1B2u   -0.499750
       1B3u   -0.499750

    Beta Virtual:

       1B3g   -0.086053     1B2g   -0.086053     3B1u    0.294469
       2B2u    0.520600     2B3u    0.520600     4Ag     0.544896
       4B1u    0.579490     2B2g    0.659494     2B3g    0.659494
       5Ag     0.675178     5B1u    1.217036     1B1g    1.220410
       6Ag     1.220410     3B3u    1.370215     3B2u    1.370215
       1Au     1.696411     6B1u    1.696411     7B1u    2.181988
       7Ag     2.186966     3B2g    2.241483     3B3g    2.241483
       4B2u    3.475571     4B3u    3.475571     8Ag     3.641621
       4B3g    3.801175     4B2g    3.801175     2B1g    4.552693
       9Ag     4.552694     5B2u    4.694813     5B3u    4.694813
       8B1u    4.702568     6B3u    4.893137     6B2u    4.893137
      10Ag     5.037549     5B2g    5.247206     5B3g    5.247206
       9B1u    5.666883     2Au     5.914057    10B1u    5.914058
      11Ag     6.097788     3B1g    6.097794    11B1u    6.332256
       3Au     6.332261     6B2g    6.369583     6B3g    6.369583
       7B3u    6.544577     7B2u    6.544577    12B1u    6.949743
      12Ag     7.122469     7B3g    7.509357     7B2g    7.509357
      13Ag     7.601418    13B1u   14.397921

    Final Occupation by Irrep:
             Ag   B1g   B2g   B3g    Au   B1u   B2u   B3u
    DOCC [     3,    0,    0,    0,    0,    2,    1,    1 ]
    SOCC [     0,    0,    1,    1,    0,    0,    0,    0 ]
    NA   [     3,    0,    1,    1,    0,    2,    1,    1 ]
    NB   [     3,    0,    0,    0,    0,    2,    1,    1 ]

  @DF-UKS Final Energy:  -150.36865081551747

   => Energetics <=

    Nuclear Repulsion Energy =             30.1805463070975826
    One-Electron Energy =                -265.9969766155965090
    Two-Electron Energy =                  99.2918523458356361
    DFT Exchange-Correlation Energy =     -13.8440728528541843
    Empirical Dispersion Energy =           0.0000000000000000
    VV10 Nonlocal Energy =                  0.0000000000000000
    Total Energy =                       -150.3686508155174693

  UHF NO Occupations:
  HONO-2 :    1B2u 1.9987329
  HONO-1 :    1B2g 1.0000000
  HONO-0 :    1B3g 1.0000000
  LUNO+0 :    2B2u 0.0012671
  LUNO+1 :    2B3u 0.0012671
  LUNO+2 :    3B1u 0.0007393
  LUNO+3 :    4 Ag 0.0002753

Computation Completed

Properties will be evaluated at   0.000000,   0.000000,   0.000000 [a0]

Properties computed using the B3LYP density matrix

 Multipole Moments:

 ------------------------------------------------------------------------------------
     Multipole            Electronic (a.u.)      Nuclear  (a.u.)        Total (a.u.)
 ------------------------------------------------------------------------------------

 L = 1.  Multiply by 2.5417464519 to convert [e a0] to [Debye]
 Dipole X            :          0.0000000            0.0000000            0.0000000
 Dipole Y            :          0.0000000            0.0000000            0.0000000
 Dipole Z            :          0.0000000            0.0000000            0.0000000
 Magnitude           :                                                    0.0000000

 L = 2.  Multiply by 1.3450342976 to convert [e a0^2] to [Debye ang]
 Quadrupole XX       :         -7.2506648            0.0000000           -7.2506648
 Quadrupole XY       :          0.0000000            0.0000000            0.0000000
 Quadrupole XZ       :          0.0000000            0.0000000            0.0000000
 Quadrupole YY       :         -7.2506648            0.0000000           -7.2506648
 Quadrupole YZ       :          0.0000000            0.0000000            0.0000000
 Quadrupole ZZ       :        -25.8697087           17.9872904           -7.8824183
 Traceless XX        :          6.2063480           -5.9957635            0.2105845
 Traceless YY        :          6.2063480           -5.9957635            0.2105845
 Traceless ZZ        :        -12.4126959           11.9915269           -0.4211690

 ------------------------------------------------------------------------------------
  ==> Computing MBIS Charges <==

  Electron Count from Grid (Expected Number): 16.00000 (16.00000)
  Difference:  0.00000

  MBIS Charges: (a.u.)
   Center  Symbol  Z      Pop.       Charge
      1       O    8    8.000001   -0.000001
      2       O    8    8.000001   -0.000001

  MBIS Dipoles: [e a0]
   Center  Symbol  Z        X           Y           Z
      1       O    8    0.000000    0.000000    0.131769
      2       O    8    0.000000    0.000000   -0.131769

  MBIS Quadrupoles: [e a0^2]
   Center  Symbol  Z      XX        XY        XZ        YY        YZ        ZZ
      1       O    8   -3.6253   -0.0000    0.0000   -3.6253   -0.0000   -3.6618
      2       O    8   -3.6253   -0.0000   -0.0000   -3.6253    0.0000   -3.6618

  MBIS Octupoles: [e a0^3]
   Center  Symbol  Z      XXX       XXY       XXZ       XYY       XYZ       XZZ       YYY       YYZ       YZZ       ZZZ
      1       O    8    0.0000   -0.0000    0.1597    0.0000   -0.0000    0.0000   -0.0000    0.1597   -0.0000   -0.0476
      2       O    8    0.0000   -0.0000   -0.1597    0.0000    0.0000   -0.0000    0.0000   -0.1597   -0.0000    0.0476

  MBIS Radial Moments:
   Center  Symbol  Z      [a0^2]      [a0^3]      [a0^4]
      1       O    8   10.912448   20.166623   44.765047
      2       O    8   10.912448   20.166623   44.765047

  MBIS Valence Widths: [a0]
   Center  Symbol  Z     Width
      1       O    8    0.378912
      2       O    8    0.378912

*** tstop() called on Mac.lan at Sun Aug 10 17:00:46 2025
Module time:
	user time   =       3.64 seconds =       0.06 minutes
	system time =       2.33 seconds =       0.04 minutes
	total time  =          1 seconds =       0.02 minutes
Total time:
	user time   =      14.97 seconds =       0.25 minutes
	system time =       4.96 seconds =       0.08 minutes
	total time  =          2 seconds =       0.03 minutes

    Psi4 stopped on: Sunday, 10 August 2025 05:00PM
    Psi4 wall time for execution: 0:00:01.94

*** Psi4 exiting successfully. Buy a developer a beer!
