                               Psi4 1.9.1 release

  ==> Input File <==

--------------------------------------------------------------------------
molecule {
0 1
H           0.000000           0.000000           0.000000
H           0.000000           0.000000           0.664030
}

set {
basis              cc-pvtz
reference          uks
maxiter            500
DAMPING_PERCENTAGE 1
E_CONVERGENCE      1.0E-8
D_CONVERGENCE      1.0E-8
DIIS_MAX_VECS      400
MBIS_MAXITER       8000
guess              read
}

E, wfn = energy('b3lyp', restart_file='last_wfn', return_wfn=True)
properties('b3lyp','MBIS_CHARGES', wfn=wfn)
wfn.to_file('last_wfn')
--------------------------------------------------------------------------

    Molecular point group: d2h
  Charge       = 0
  Multiplicity = 1
  Basis Set: CC-PVTZ
    Blend: CC-PVTZ
  Basis Set: (CC-PVTZ AUX)
    Blend: CC-PVTZ-JKFIT
  @DF-UKS Final Energy:    -1.17506650070859
    Total Energy =                         -1.1750665007085879
 Dipole X            :          0.0000000            0.0000000            0.0000000
 Dipole Y            :          0.0000000            0.0000000            0.0000000
 Dipole Z            :          0.0000000            0.0000000            0.0000000
 Magnitude           :                                                    0.0000000
    Molecular point group: d2h

    Geometry (in Angstrom), charge = 0, multiplicity = 1:

       Center              X                  Y                   Z               Mass
    ------------   -----------------  -----------------  -----------------  -----------------
         H            0.000000000000     0.000000000000    -0.332015000000     1.007825032230
         H            0.000000000000     0.000000000000     0.332015000000     1.007825032230

  Charge       = 0
  Multiplicity = 1
  Basis Set: CC-PVTZ
    Blend: CC-PVTZ
  Basis Set: (CC-PVTZ AUX)
    Blend: CC-PVTZ-JKFIT

    Orbital Energies [Eh]
    ---------------------

    Alpha Occupied:

       1Ag    -0.451326

    Alpha Virtual:

       1B1u    0.072762     2Ag     0.190190     2B1u    0.501135
       1B2u    0.519208     1B3u    0.519208     3Ag     0.932433
       1B2g    0.950642     1B3g    0.950642     3B1u    1.390301
       4Ag     2.049685     4B1u    2.080664     5Ag     2.892946
       1B1g    2.892946     2B2u    3.113853     2B3u    3.113853
       6Ag     3.384895     2B3g    3.530877     2B2g    3.530877
       5B1u    3.875339     1Au     3.875339     3B2u    3.887371
       3B3u    3.887371     6B1u    4.597793     3B3g    5.706906
       3B2g    5.706906     7Ag     5.780707     7B1u    7.022236

    Beta Occupied:

       1Ag    -0.451326

    Beta Virtual:

       1B1u    0.072762     2Ag     0.190190     2B1u    0.501135
       1B2u    0.519208     1B3u    0.519208     3Ag     0.932433
       1B2g    0.950642     1B3g    0.950642     3B1u    1.390301
       4Ag     2.049685     4B1u    2.080664     5Ag     2.892946
       1B1g    2.892946     2B2u    3.113853     2B3u    3.113853
       6Ag     3.384895     2B3g    3.530877     2B2g    3.530877
       5B1u    3.875339     1Au     3.875339     3B2u    3.887371
       3B3u    3.887371     6B1u    4.597793     3B3g    5.706906
       3B2g    5.706906     7Ag     5.780707     7B1u    7.022236

    Final Occupation by Irrep:
             Ag   B1g   B2g   B3g    Au   B1u   B2u   B3u
    DOCC [     1,    0,    0,    0,    0,    0,    0,    0 ]
    SOCC [     0,    0,    0,    0,    0,    0,    0,    0 ]
    NA   [     1,    0,    0,    0,    0,    0,    0,    0 ]
    NB   [     1,    0,    0,    0,    0,    0,    0,    0 ]

  @DF-UKS Final Energy:    -1.17506650085038

   => Energetics <=

    Nuclear Repulsion Energy =              0.7969176252127163
    One-Electron Energy =                  -2.6106843540711835
    Two-Electron Energy =                   1.2340304485871036
    DFT Exchange-Correlation Energy =      -0.5953302205790184
    Empirical Dispersion Energy =           0.0000000000000000
    VV10 Nonlocal Energy =                  0.0000000000000000
    Total Energy =                         -1.1750665008503818

  UHF NO Occupations:
  HONO-0 :    1 Ag 2.0000000
  LUNO+0 :    2 Ag 0.0000000
  LUNO+1 :    3 Ag 0.0000000
  LUNO+2 :    4 Ag 0.0000000
  LUNO+3 :    3B3u 0.0000000

Computation Completed

Properties will be evaluated at   0.000000,   0.000000,   0.000000 [a0]

Properties computed using the B3LYP density matrix

 Multipole Moments:

 ------------------------------------------------------------------------------------
     Multipole            Electronic (a.u.)      Nuclear  (a.u.)        Total (a.u.)
 ------------------------------------------------------------------------------------

 L = 1.  Multiply by 2.5417464519 to convert [e a0] to [Debye]
 Dipole X            :          0.0000000            0.0000000            0.0000000
 Dipole Y            :          0.0000000            0.0000000            0.0000000
 Dipole Z            :          0.0000000            0.0000000            0.0000000
 Magnitude           :                                                    0.0000000

 L = 2.  Multiply by 1.3450342976 to convert [e a0^2] to [Debye ang]
 Quadrupole XX       :         -1.4802837            0.0000000           -1.4802837
 Quadrupole XY       :          0.0000000            0.0000000            0.0000000
 Quadrupole XZ       :          0.0000000            0.0000000            0.0000000
 Quadrupole YY       :         -1.4802837            0.0000000           -1.4802837
 Quadrupole YZ       :          0.0000000            0.0000000            0.0000000
 Quadrupole ZZ       :         -1.9215855            0.7873052           -1.1342802
 Traceless XX        :          0.1471006           -0.2624351           -0.1153345
 Traceless YY        :          0.1471006           -0.2624351           -0.1153345
 Traceless ZZ        :         -0.2942012            0.5248702            0.2306690

 ------------------------------------------------------------------------------------
  ==> Computing MBIS Charges <==

  Electron Count from Grid (Expected Number):  2.00000 ( 2.00000)
  Difference: -0.00000

  MBIS Charges: (a.u.)
   Center  Symbol  Z      Pop.       Charge
      1       H    1    1.000000    0.000000
      2       H    1    1.000000    0.000000

  MBIS Dipoles: [e a0]
   Center  Symbol  Z        X           Y           Z
      1       H    1    0.000000    0.000000   -0.071475
      2       H    1    0.000000    0.000000    0.071475

  MBIS Quadrupoles: [e a0^2]
   Center  Symbol  Z      XX        XY        XZ        YY        YZ        ZZ
      1       H    1   -0.7401   -0.0000   -0.0000   -0.7401   -0.0000   -0.6568
      2       H    1   -0.7401    0.0000    0.0000   -0.7401    0.0000   -0.6568

  MBIS Octupoles: [e a0^3]
   Center  Symbol  Z      XXX       XXY       XXZ       XYY       XYZ       XZZ       YYY       YYZ       YZZ       ZZZ
      1       H    1    0.0000    0.0000   -0.0316    0.0000   -0.0000    0.0000    0.0000   -0.0316    0.0000   -0.0369
      2       H    1   -0.0000    0.0000    0.0316    0.0000   -0.0000    0.0000    0.0000    0.0316    0.0000    0.0369

  MBIS Radial Moments:
   Center  Symbol  Z      [a0^2]      [a0^3]      [a0^4]
      1       H    1    2.137113    4.629097   12.241493
      2       H    1    2.137113    4.629097   12.241493

  MBIS Valence Widths: [a0]
   Center  Symbol  Z     Width
      1       H    1    0.419048
      2       H    1    0.419048

*** tstop() called on Mac.lan at Sun Aug 10 16:59:16 2025
Module time:
	user time   =       0.49 seconds =       0.01 minutes
	system time =       1.42 seconds =       0.02 minutes
	total time  =          0 seconds =       0.00 minutes
Total time:
	user time   =       1.50 seconds =       0.03 minutes
	system time =       3.54 seconds =       0.06 minutes
	total time  =          0 seconds =       0.00 minutes

    Psi4 stopped on: Sunday, 10 August 2025 04:59PM
    Psi4 wall time for execution: 0:00:00.77

*** Psi4 exiting successfully. Buy a developer a beer!
