                               Psi4 1.9.1 release

  ==> Input File <==

--------------------------------------------------------------------------
molecule {
0 2
O           0.000000           0.000000           0.000000
N           0.000000           0.000000           1.445303
}

set {
basis              cc-pvtz
reference          uks
maxiter            500
DAMPING_PERCENTAGE 1
E_CONVERGENCE      1.0E-8
D_CONVERGENCE      1.0E-8
DIIS_MAX_VECS      400
MBIS_MAXITER       8000
guess              read
}

E, wfn = energy('b3lyp', restart_file='last_wfn', return_wfn=True)
properties('b3lyp','MBIS_CHARGES', wfn=wfn)
wfn.to_file('last_wfn')
--------------------------------------------------------------------------

    Molecular point group: c2v
  Charge       = 0
  Multiplicity = 2
  Basis Set: CC-PVTZ
    Blend: CC-PVTZ
  Basis Set: (CC-PVTZ AUX)
    Blend: CC-PVTZ-JKFIT
  @DF-UKS Final Energy:  -129.84998122005368
    Total Energy =                       -129.8499812200536780
 Dipole X            :          0.0000000            0.0000000            0.0000000
 Dipole Y            :          0.0000000            0.0000000            0.0000000
 Dipole Z            :          0.2280013           -0.0054801            0.2225212
 Magnitude           :                                                    0.2225212
    Molecular point group: c2v

    Geometry (in Angstrom), charge = 0, multiplicity = 2:

       Center              X                  Y                   Z               Mass
    ------------   -----------------  -----------------  -----------------  -----------------
         O            0.000000000000     0.000000000000    -0.674668062632    15.994914619570
         N            0.000000000000     0.000000000000     0.770634937368    14.003074004430

  Charge       = 0
  Multiplicity = 2
  Basis Set: CC-PVTZ
    Blend: CC-PVTZ
  Basis Set: (CC-PVTZ AUX)
    Blend: CC-PVTZ-JKFIT

    Orbital Energies [Eh]
    ---------------------

    Alpha Occupied:

       1A1   -19.265775     2A1   -14.514534     3A1    -1.068580
       4A1    -0.751359     5A1    -0.461040     1B1    -0.459152
       1B2    -0.421769     2B1    -0.302518

    Alpha Virtual:

       2B2    -0.193287     6A1     0.043402     7A1     0.395143
       3B1     0.416211     3B2     0.420752     8A1     0.476925
       9A1     0.568599     4B1     0.598451     4B2     0.610217
       1A2     0.938657    10A1     0.939723     5B2     0.997248
       5B1     1.000124    11A1     1.132128     2A2     1.472430
      12A1     1.473987    13A1     1.494399     6B1     1.830045
       6B2     1.832053    14A1     2.023639     7B1     2.733160
       7B2     2.743417    15A1     3.007486     8B1     3.441844
       8B2     3.456741    16A1     3.678020     3A2     3.753012
      17A1     3.754214     9B1     3.774297     9B2     3.774511
      10B1     3.945115    10B2     3.946638    18A1     4.257044
       4A2     4.293449    19A1     4.296416    11B1     4.515214
      11B2     4.519579    20A1     4.783805    12B1     5.066993
      12B2     5.067369     5A2     5.179931    21A1     5.181566
      22A1     5.239460    13B1     5.667856    13B2     5.670772
       6A2     6.143113    23A1     6.147461    24A1     6.213299
      14B1     6.531615    14B2     6.541966    25A1     7.368785
      26A1     8.613955

    Beta Occupied:

       1A1   -19.267862     2A1   -14.489099     3A1    -1.060442
       4A1    -0.698279     5A1    -0.446000     1B2    -0.434212
       1B1    -0.390587

    Beta Virtual:

       2B2    -0.166360     2B1    -0.130459     6A1     0.062679
       7A1     0.402487     3B2     0.445281     3B1     0.463473
       8A1     0.496728     9A1     0.574549     4B2     0.593558
       4B1     0.615720     1A2     0.986294    10A1     0.986321
       5B2     1.007781     5B1     1.029076    11A1     1.132386
       2A2     1.473085    12A1     1.473212    13A1     1.514455
       6B2     1.826352     6B1     1.851772    14A1     2.026866
       7B2     2.790476     7B1     2.819548    15A1     3.022172
       8B2     3.436138     8B1     3.472974    16A1     3.702797
       3A2     3.799288    17A1     3.800599     9B2     3.849433
       9B1     3.849526    10B2     3.952664    10B1     3.983131
      18A1     4.267903    19A1     4.396573     4A2     4.396645
      11B2     4.553823    11B1     4.582377    20A1     4.826276
      12B2     5.060638    12B1     5.060663    21A1     5.175987
       5A2     5.178230    22A1     5.255196    13B2     5.653685
      13B1     5.686226    23A1     6.136550     6A2     6.138387
      24A1     6.214795    14B2     6.514804    14B1     6.551997
      25A1     7.372348    26A1     8.619587

    Final Occupation by Irrep:
             A1    A2    B1    B2
    DOCC [     5,    0,    1,    1 ]
    SOCC [     0,    0,    1,    0 ]
    NA   [     5,    0,    2,    1 ]
    NB   [     5,    0,    1,    1 ]

  @DF-UKS Final Energy:  -129.84998122120319

   => Energetics <=

    Nuclear Repulsion Energy =             20.5036063700967901
    One-Electron Energy =                -217.8532060803350419
    Two-Electron Energy =                  79.7631793376042708
    DFT Exchange-Correlation Energy =     -12.2635608485692238
    Empirical Dispersion Energy =           0.0000000000000000
    VV10 Nonlocal Energy =                  0.0000000000000000
    Total Energy =                       -129.8499812212031941

  UHF NO Occupations:
  HONO-2 :    5 A1 1.9989004
  HONO-1 :    1 B2 1.9339316
  HONO-0 :    2 B1 1.0000000
  LUNO+0 :    2 B2 0.0660684
  LUNO+1 :    6 A1 0.0010996
  LUNO+2 :    3 B1 0.0009565
  LUNO+3 :    7 A1 0.0003187

Computation Completed

Properties will be evaluated at   0.000000,   0.000000,   0.000000 [a0]

Properties computed using the B3LYP density matrix

 Multipole Moments:

 ------------------------------------------------------------------------------------
     Multipole            Electronic (a.u.)      Nuclear  (a.u.)        Total (a.u.)
 ------------------------------------------------------------------------------------

 L = 1.  Multiply by 2.5417464519 to convert [e a0] to [Debye]
 Dipole X            :          0.0000000            0.0000000            0.0000000
 Dipole Y            :          0.0000000            0.0000000            0.0000000
 Dipole Z            :          0.2280013           -0.0054801            0.2225212
 Magnitude           :                                                    0.2225212

 L = 2.  Multiply by 1.3450342976 to convert [e a0^2] to [Debye ang]
 Quadrupole XX       :         -8.2194599            0.0000000           -8.2194599
 Quadrupole XY       :          0.0000000            0.0000000            0.0000000
 Quadrupole XZ       :          0.0000000            0.0000000            0.0000000
 Quadrupole YY       :         -7.4702488            0.0000000           -7.4702488
 Quadrupole YZ       :          0.0000000            0.0000000            0.0000000
 Quadrupole ZZ       :        -35.9105721           27.8491755           -8.0613966
 Traceless XX        :          8.9806337           -9.2830585           -0.3024248
 Traceless YY        :          9.7298448           -9.2830585            0.4467863
 Traceless ZZ        :        -18.7104785           18.5661170           -0.1443615

 ------------------------------------------------------------------------------------
  ==> Computing MBIS Charges <==

  Electron Count from Grid (Expected Number): 15.00000 (15.00000)
  Difference: -0.00000

  MBIS Charges: (a.u.)
   Center  Symbol  Z      Pop.       Charge
      1       O    8    8.125698   -0.125698
      2       N    7    6.874301    0.125699

  MBIS Dipoles: [e a0]
   Center  Symbol  Z        X           Y           Z
      1       O    8    0.000000   -0.000000   -0.030540
      2       N    7    0.000000    0.000000   -0.090252

  MBIS Quadrupoles: [e a0^2]
   Center  Symbol  Z      XX        XY        XZ        YY        YZ        ZZ
      1       O    8   -4.0874    0.0000    0.0000   -3.7542   -0.0000   -3.8811
      2       N    7   -4.1320    0.0000    0.0000   -3.7160    0.0000   -4.0575

  MBIS Octupoles: [e a0^3]
   Center  Symbol  Z      XXX       XXY       XXZ       XYY       XYZ       XZZ       YYY       YYZ       YZZ       ZZZ
      1       O    8   -0.0000   -0.0000    0.0075   -0.0000    0.0000   -0.0000   -0.0000   -0.0730    0.0000   -0.3008
      2       N    7   -0.0000    0.0000   -0.0436   -0.0000   -0.0000   -0.0000   -0.0000    0.0756   -0.0000    0.2340

  MBIS Radial Moments:
   Center  Symbol  Z      [a0^2]      [a0^3]      [a0^4]
      1       O    8   11.722808   22.219295   50.414402
      2       N    7   11.905567   25.024559   62.711366

  MBIS Valence Widths: [a0]
   Center  Symbol  Z     Width
      1       O    8    0.389663
      2       N    7    0.439011

*** tstop() called on Mac.lan at Sun Aug 10 17:21:10 2025
Module time:
	user time   =       3.84 seconds =       0.06 minutes
	system time =       2.22 seconds =       0.04 minutes
	total time  =          0 seconds =       0.00 minutes
Total time:
	user time   =      26.12 seconds =       0.44 minutes
	system time =       4.63 seconds =       0.08 minutes
	total time  =          3 seconds =       0.05 minutes

    Psi4 stopped on: Sunday, 10 August 2025 05:21PM
    Psi4 wall time for execution: 0:00:03.09

*** Psi4 exiting successfully. Buy a developer a beer!
