                               Psi4 1.9.1 release

  ==> Input File <==

--------------------------------------------------------------------------
molecule {
0 2
O           0.000000           0.000000           0.000000
N           0.000000           0.000000           1.361110
}

set {
basis              cc-pvtz
reference          uks
maxiter            500
DAMPING_PERCENTAGE 1
E_CONVERGENCE      1.0E-8
D_CONVERGENCE      1.0E-8
DIIS_MAX_VECS      400
MBIS_MAXITER       8000
guess              read
}

E, wfn = energy('b3lyp', restart_file='last_wfn', return_wfn=True)
properties('b3lyp','MBIS_CHARGES', wfn=wfn)
wfn.to_file('last_wfn')
--------------------------------------------------------------------------

    Molecular point group: c2v
  Charge       = 0
  Multiplicity = 2
  Basis Set: CC-PVTZ
    Blend: CC-PVTZ
  Basis Set: (CC-PVTZ AUX)
    Blend: CC-PVTZ-JKFIT
  @DF-UKS Final Energy:  -129.88450974958118
    Total Energy =                       -129.8845097495811842
 Dipole X            :          0.0000000            0.0000000            0.0000000
 Dipole Y            :          0.0000000            0.0000000            0.0000000
 Dipole Z            :          0.1696410           -0.0051609            0.1644801
 Magnitude           :                                                    0.1644801
    Molecular point group: c2v

    Geometry (in Angstrom), charge = 0, multiplicity = 2:

       Center              X                  Y                   Z               Mass
    ------------   -----------------  -----------------  -----------------  -----------------
         O            0.000000000000     0.000000000000    -0.635366733986    15.994914619570
         N            0.000000000000     0.000000000000     0.725743266014    14.003074004430

  Charge       = 0
  Multiplicity = 2
  Basis Set: CC-PVTZ
    Blend: CC-PVTZ
  Basis Set: (CC-PVTZ AUX)
    Blend: CC-PVTZ-JKFIT

    Orbital Energies [Eh]
    ---------------------

    Alpha Occupied:

       1A1   -19.272666     2A1   -14.504589     3A1    -1.114774
       4A1    -0.734222     1B1    -0.479085     5A1    -0.472312
       1B2    -0.445560     2B1    -0.286698

    Alpha Virtual:

       2B2    -0.177108     6A1     0.107404     7A1     0.397363
       3B1     0.417096     3B2     0.425360     8A1     0.469532
       9A1     0.561501     4B1     0.595748     4B2     0.602293
       1A2     0.937465    10A1     0.939243     5B2     1.025646
       5B1     1.026591    11A1     1.155562     2A2     1.475844
      12A1     1.476935    13A1     1.522542     6B1     1.878087
       6B2     1.878777    14A1     2.062760     7B1     2.754257
       7B2     2.771946    15A1     3.022402     8B1     3.439399
       8B2     3.448104     3A2     3.746568    16A1     3.748391
       9B1     3.782698     9B2     3.783222    17A1     3.811860
      10B1     3.977173    10B2     3.978165    18A1     4.278290
       4A2     4.313210    19A1     4.318378    11B1     4.575220
      11B2     4.583975    20A1     4.592694    12B1     5.050535
      12B2     5.050671     5A2     5.240889    21A1     5.241916
      22A1     5.460940    13B1     5.849702    13B2     5.849806
       6A2     6.134087    23A1     6.136490    24A1     6.383116
      14B1     6.604265    14B2     6.606843    25A1     7.345714
      26A1     9.441774

    Beta Occupied:

       1A1   -19.265408     2A1   -14.486034     3A1    -1.094242
       4A1    -0.690668     5A1    -0.454693     1B2    -0.440566
       1B1    -0.405242

    Beta Virtual:

       2B2    -0.158931     2B1    -0.116377     6A1     0.125498
       7A1     0.404452     3B2     0.435692     3B1     0.458540
       8A1     0.484968     9A1     0.567077     4B2     0.601370
       4B1     0.618788     1A2     0.970761    10A1     0.970770
       5B2     1.029459     5B1     1.054415    11A1     1.163327
       2A2     1.491804    12A1     1.491877    13A1     1.537409
       6B2     1.879773     6B1     1.903148    14A1     2.072012
       7B2     2.792300     7B1     2.831290    15A1     3.035283
       8B2     3.448541     8B1     3.478877    16A1     3.774861
       3A2     3.778125    17A1     3.836146     9B2     3.836468
       9B1     3.836573    10B2     3.983853    10B1     4.014982
      18A1     4.288825    19A1     4.389009     4A2     4.390067
      11B2     4.595820    20A1     4.623268    11B1     4.632538
      12B2     5.066965    12B1     5.066974    21A1     5.253658
       5A2     5.253967    22A1     5.474778    13B2     5.848470
      13B1     5.876640    23A1     6.160721     6A2     6.161000
      24A1     6.391573    14B2     6.603867    14B1     6.632475
      25A1     7.360276    26A1     9.457480

    Final Occupation by Irrep:
             A1    A2    B1    B2
    DOCC [     5,    0,    1,    1 ]
    SOCC [     0,    0,    1,    0 ]
    NA   [     5,    0,    2,    1 ]
    NB   [     5,    0,    1,    1 ]

  @DF-UKS Final Energy:  -129.88450974512963

   => Energetics <=

    Nuclear Repulsion Energy =             21.7718801548148200
    One-Electron Energy =                -220.3265341868645635
    Two-Electron Energy =                  80.9588567126861562
    DFT Exchange-Correlation Energy =     -12.2887124257660627
    Empirical Dispersion Energy =           0.0000000000000000
    VV10 Nonlocal Energy =                  0.0000000000000000
    Total Energy =                       -129.8845097451296340

  UHF NO Occupations:
  HONO-2 :    1 B1 1.9989168
  HONO-1 :    1 B2 1.9963499
  HONO-0 :    2 B1 1.0000000
  LUNO+0 :    2 B2 0.0036501
  LUNO+1 :    3 B1 0.0010832
  LUNO+2 :    6 A1 0.0005864
  LUNO+3 :    7 A1 0.0001015

Computation Completed

Properties will be evaluated at   0.000000,   0.000000,   0.000000 [a0]

Properties computed using the B3LYP density matrix

 Multipole Moments:

 ------------------------------------------------------------------------------------
     Multipole            Electronic (a.u.)      Nuclear  (a.u.)        Total (a.u.)
 ------------------------------------------------------------------------------------

 L = 1.  Multiply by 2.5417464519 to convert [e a0] to [Debye]
 Dipole X            :          0.0000000            0.0000000            0.0000000
 Dipole Y            :          0.0000000            0.0000000            0.0000000
 Dipole Z            :          0.1696411           -0.0051609            0.1644802
 Magnitude           :                                                    0.1644802

 L = 2.  Multiply by 1.3450342976 to convert [e a0^2] to [Debye ang]
 Quadrupole XX       :         -8.1585633            0.0000000           -8.1585633
 Quadrupole XY       :          0.0000000            0.0000000            0.0000000
 Quadrupole XZ       :          0.0000000            0.0000000            0.0000000
 Quadrupole YY       :         -7.3995509            0.0000000           -7.3995509
 Quadrupole YZ       :          0.0000000            0.0000000            0.0000000
 Quadrupole ZZ       :        -32.8465239           24.6990917           -8.1474322
 Traceless XX        :          7.9763160           -8.2330306           -0.2567145
 Traceless YY        :          8.7353285           -8.2330306            0.5022979
 Traceless ZZ        :        -16.7116445           16.4660612           -0.2455834

 ------------------------------------------------------------------------------------
  ==> Computing MBIS Charges <==

  Electron Count from Grid (Expected Number): 15.00000 (15.00000)
  Difference: -0.00000

  MBIS Charges: (a.u.)
   Center  Symbol  Z      Pop.       Charge
      1       O    8    8.111586   -0.111586
      2       N    7    6.888414    0.111586

  MBIS Dipoles: [e a0]
   Center  Symbol  Z        X           Y           Z
      1       O    8    0.000000   -0.000000   -0.016494
      2       N    7   -0.000000   -0.000000   -0.106040

  MBIS Quadrupoles: [e a0^2]
   Center  Symbol  Z      XX        XY        XZ        YY        YZ        ZZ
      1       O    8   -3.9902   -0.0000   -0.0000   -3.7250   -0.0000   -3.8616
      2       N    7   -4.1683    0.0000    0.0000   -3.6746    0.0000   -4.0836

  MBIS Octupoles: [e a0^3]
   Center  Symbol  Z      XXX       XXY       XXZ       XYY       XYZ       XZZ       YYY       YYZ       YZZ       ZZZ
      1       O    8    0.0000   -0.0000    0.0201    0.0000    0.0000   -0.0000   -0.0000   -0.0430   -0.0000   -0.2433
      2       N    7   -0.0000   -0.0000   -0.0970   -0.0000    0.0000    0.0000   -0.0000    0.0721    0.0000    0.1896

  MBIS Radial Moments:
   Center  Symbol  Z      [a0^2]      [a0^3]      [a0^4]
      1       O    8   11.576816   21.809995   49.211202
      2       N    7   11.926499   25.050634   62.719117

  MBIS Valence Widths: [a0]
   Center  Symbol  Z     Width
      1       O    8    0.387607
      2       N    7    0.438759

*** tstop() called on Mac.lan at Sun Aug 10 17:20:58 2025
Module time:
	user time   =       3.75 seconds =       0.06 minutes
	system time =       2.11 seconds =       0.04 minutes
	total time  =          0 seconds =       0.00 minutes
Total time:
	user time   =      19.70 seconds =       0.33 minutes
	system time =       4.00 seconds =       0.07 minutes
	total time  =          2 seconds =       0.03 minutes

    Psi4 stopped on: Sunday, 10 August 2025 05:20PM
    Psi4 wall time for execution: 0:00:02.29

*** Psi4 exiting successfully. Buy a developer a beer!
