                               Psi4 1.9.1 release

  ==> Input File <==

--------------------------------------------------------------------------
molecule {
0 2
N           0.000000           0.000000           0.000000
C           0.000000           0.000000           0.953956
}

set {
basis              cc-pvtz
reference          uks
maxiter            500
DAMPING_PERCENTAGE 1
E_CONVERGENCE      1.0E-8
D_CONVERGENCE      1.0E-8
DIIS_MAX_VECS      400
MBIS_MAXITER       8000
guess              read
}

E, wfn = energy('b3lyp', restart_file='last_wfn', return_wfn=True)
properties('b3lyp','MBIS_CHARGES', wfn=wfn)
wfn.to_file('last_wfn')
--------------------------------------------------------------------------

    Molecular point group: c2v
  Charge       = 0
  Multiplicity = 2
  Basis Set: CC-PVTZ
    Blend: CC-PVTZ
  Basis Set: (CC-PVTZ AUX)
    Blend: CC-PVTZ-JKFIT
  @DF-UKS Final Energy:   -92.60106835463907
    Total Energy =                        -92.6010683546390680
 Dipole X            :          0.0000000            0.0000000            0.0000000
 Dipole Y            :          0.0000000            0.0000000            0.0000000
 Dipole Z            :          0.6973069            0.0012787            0.6985856
 Magnitude           :                                                    0.6985856
    Molecular point group: c2v

    Geometry (in Angstrom), charge = 0, multiplicity = 2:

       Center              X                  Y                   Z               Mass
    ------------   -----------------  -----------------  -----------------  -----------------
         N            0.000000000000     0.000000000000    -0.440235335178    14.003074004430
         C            0.000000000000     0.000000000000     0.513720664822    12.000000000000

  Charge       = 0
  Multiplicity = 2
  Basis Set: CC-PVTZ
    Blend: CC-PVTZ
  Basis Set: (CC-PVTZ AUX)
    Blend: CC-PVTZ-JKFIT

    Orbital Energies [Eh]
    ---------------------

    Alpha Occupied:

       1A1   -14.313725     2A1   -10.235777     3A1    -1.026749
       4A1    -0.465582     1B2    -0.449892     1B1    -0.449892
       5A1    -0.395772

    Alpha Virtual:

       2B2     0.067330     2B1     0.067330     6A1     0.174752
       7A1     0.250042     3B2     0.275051     3B1     0.275051
       8A1     0.451935     4B1     0.532151     4B2     0.532151
       9A1     0.615965     1A2     0.615965    10A1     0.776895
       5B2     0.905251     5B1     0.905251    11A1     0.973378
      12A1     1.227107     2A2     1.227107    13A1     1.510451
       6B2     1.574974     6B1     1.574974     7B2     1.892472
       7B1     1.892472    14A1     1.971220    15A1     2.324576
       8B1     2.601690     8B2     2.601690    16A1     2.788976
      17A1     2.792456     3A2     2.792456     9B2     2.851355
       9B1     2.851355     4A2     2.924674    18A1     2.924674
      10B1     3.139515    10B2     3.139515    19A1     3.239252
      11B2     3.547080    11B1     3.547080    12B1     4.025335
      12B2     4.025335    20A1     4.446830    21A1     4.537420
       5A2     4.537421    22A1     4.869490     6A2     4.869490
      13B2     4.943623    13B1     4.943623    23A1     5.376359
      24A1     5.625725    14B2     6.107572    14B1     6.107572
      25A1     7.356538    26A1    15.882734

    Beta Occupied:

       1A1   -14.311183     2A1   -10.217262     3A1    -1.007651
       1B2    -0.439086     1B1    -0.439086     4A1    -0.393408

    Beta Virtual:

       5A1    -0.243422     2B2     0.090155     2B1     0.090155
       6A1     0.181665     3B2     0.287630     3B1     0.287630
       7A1     0.295151     8A1     0.463461     4B1     0.538156
       4B2     0.538156     9A1     0.629076     1A2     0.629076
      10A1     0.823825     5B2     0.934324     5B1     0.934324
      11A1     0.980275    12A1     1.230023     2A2     1.230023
      13A1     1.557555     6B2     1.585029     6B1     1.585029
       7B2     1.913094     7B1     1.913094    14A1     1.995980
      15A1     2.380140     8B1     2.621371     8B2     2.621371
      16A1     2.801876     3A2     2.801877    17A1     2.829756
       9B2     2.933447     9B1     2.933447     4A2     2.985927
      18A1     2.985927    10B1     3.146381    10B2     3.146381
      19A1     3.325678    11B2     3.579870    11B1     3.579870
      12B1     4.022458    12B2     4.022458    20A1     4.470417
      21A1     4.531820     5A2     4.531820    22A1     4.878887
       6A2     4.878887    13B2     4.955118    13B1     4.955118
      23A1     5.396428    24A1     5.658065    14B2     6.135552
      14B1     6.135552    25A1     7.369727    26A1    15.909640

    Final Occupation by Irrep:
             A1    A2    B1    B2
    DOCC [     4,    0,    1,    1 ]
    SOCC [     1,    0,    0,    0 ]
    NA   [     5,    0,    1,    1 ]
    NB   [     4,    0,    1,    1 ]

  @DF-UKS Final Energy:   -92.60106835587119

   => Energetics <=

    Nuclear Repulsion Energy =             23.2981844530984645
    One-Electron Energy =                -170.4096910552218560
    Two-Electron Energy =                  64.5794501841681807
    DFT Exchange-Correlation Energy =     -10.0690119379159704
    Empirical Dispersion Energy =           0.0000000000000000
    VV10 Nonlocal Energy =                  0.0000000000000000
    Total Energy =                        -92.6010683558711918

  UHF NO Occupations:
  HONO-2 :    1 B2 1.9988440
  HONO-1 :    1 B1 1.9988440
  HONO-0 :    5 A1 1.0000000
  LUNO+0 :    2 B2 0.0011560
  LUNO+1 :    2 B1 0.0011560
  LUNO+2 :    6 A1 0.0004772
  LUNO+3 :    7 A1 0.0000471

Computation Completed

Properties will be evaluated at   0.000000,   0.000000,   0.000000 [a0]

Properties computed using the B3LYP density matrix

 Multipole Moments:

 ------------------------------------------------------------------------------------
     Multipole            Electronic (a.u.)      Nuclear  (a.u.)        Total (a.u.)
 ------------------------------------------------------------------------------------

 L = 1.  Multiply by 2.5417464519 to convert [e a0] to [Debye]
 Dipole X            :          0.0000000            0.0000000            0.0000000
 Dipole Y            :          0.0000000            0.0000000            0.0000000
 Dipole Z            :          0.6973069            0.0012787            0.6985855
 Magnitude           :                                                    0.6985855

 L = 2.  Multiply by 1.3450342976 to convert [e a0^2] to [Debye ang]
 Quadrupole XX       :         -7.5186586            0.0000000           -7.5186586
 Quadrupole XY       :          0.0000000            0.0000000            0.0000000
 Quadrupole XZ       :          0.0000000            0.0000000            0.0000000
 Quadrupole YY       :         -7.5186586            0.0000000           -7.5186586
 Quadrupole YZ       :          0.0000000            0.0000000            0.0000000
 Quadrupole ZZ       :        -18.2521256           10.4993005           -7.7528251
 Traceless XX        :          3.5778224           -3.4997668            0.0780555
 Traceless YY        :          3.5778224           -3.4997668            0.0780555
 Traceless ZZ        :         -7.1556447            6.9995337           -0.1561110

 ------------------------------------------------------------------------------------
  ==> Computing MBIS Charges <==

  Electron Count from Grid (Expected Number): 13.00000 (13.00000)
  Difference: -0.00000

  MBIS Charges: (a.u.)
   Center  Symbol  Z      Pop.       Charge
      1       N    7    7.388878   -0.388878
      2       C    6    5.611122    0.388878

  MBIS Dipoles: [e a0]
   Center  Symbol  Z        X           Y           Z
      1       N    7   -0.000000    0.000000   -0.109288
      2       C    6   -0.000000    0.000000    0.106837

  MBIS Quadrupoles: [e a0^2]
   Center  Symbol  Z      XX        XY        XZ        YY        YZ        ZZ
      1       N    7   -4.1259    0.0000   -0.0000   -4.1259    0.0000   -4.6196
      2       C    6   -3.3927    0.0000    0.0000   -3.3927    0.0000   -3.6198

  MBIS Octupoles: [e a0^3]
   Center  Symbol  Z      XXX       XXY       XXZ       XYY       XYZ       XZZ       YYY       YYZ       YZZ       ZZZ
      1       N    7   -0.0000   -0.0000   -0.0764   -0.0000    0.0000   -0.0000   -0.0000   -0.0764    0.0000    0.1444
      2       C    6   -0.0000   -0.0000   -0.0419   -0.0000    0.0000   -0.0000    0.0000   -0.0419    0.0000   -0.1940

  MBIS Radial Moments:
   Center  Symbol  Z      [a0^2]      [a0^3]      [a0^4]
      1       N    7   12.871452   26.981018   67.828780
      2       C    6   10.405313   23.524349   63.940966

  MBIS Valence Widths: [a0]
   Center  Symbol  Z     Width
      1       N    7    0.433610
      2       C    6    0.469182

*** tstop() called on Mac.lan at Sun Aug 10 17:13:07 2025
Module time:
	user time   =       3.54 seconds =       0.06 minutes
	system time =       2.79 seconds =       0.05 minutes
	total time  =          0 seconds =       0.00 minutes
Total time:
	user time   =      18.50 seconds =       0.31 minutes
	system time =       4.85 seconds =       0.08 minutes
	total time  =          2 seconds =       0.03 minutes

    Psi4 stopped on: Sunday, 10 August 2025 05:13PM
    Psi4 wall time for execution: 0:00:02.26

*** Psi4 exiting successfully. Buy a developer a beer!
