                               Psi4 1.9.1 release

  ==> Input File <==

--------------------------------------------------------------------------
molecule {
0 3
O           0.000000           0.000000           0.000000
O           0.000000           0.000000           1.786593
}

set {
basis              cc-pvtz
reference          uks
maxiter            500
DAMPING_PERCENTAGE 1
E_CONVERGENCE      1.0E-8
D_CONVERGENCE      1.0E-8
DIIS_MAX_VECS      400
MBIS_MAXITER       8000
guess              read
}

E, wfn = energy('b3lyp', restart_file='last_wfn', return_wfn=True)
properties('b3lyp','MBIS_CHARGES', wfn=wfn)
wfn.to_file('last_wfn')
--------------------------------------------------------------------------

    Molecular point group: d2h
  Charge       = 0
  Multiplicity = 3
  Basis Set: CC-PVTZ
    Blend: CC-PVTZ
  Basis Set: (CC-PVTZ AUX)
    Blend: CC-PVTZ-JKFIT
  @DF-UKS Final Energy:  -150.21771610036322
    Total Energy =                       -150.2177161003632477
 Dipole X            :          0.0000000            0.0000000            0.0000000
 Dipole Y            :          0.0000000            0.0000000            0.0000000
 Dipole Z            :          0.0000000            0.0000000            0.0000000
 Magnitude           :                                                    0.0000000
    Molecular point group: d2h

    Geometry (in Angstrom), charge = 0, multiplicity = 3:

       Center              X                  Y                   Z               Mass
    ------------   -----------------  -----------------  -----------------  -----------------
         O            0.000000000000     0.000000000000    -0.893296500000    15.994914619570
         O            0.000000000000     0.000000000000     0.893296500000    15.994914619570

  Charge       = 0
  Multiplicity = 3
  Basis Set: CC-PVTZ
    Blend: CC-PVTZ
  Basis Set: (CC-PVTZ AUX)
    Blend: CC-PVTZ-JKFIT

    Orbital Energies [Eh]
    ---------------------

    Alpha Occupied:

       1Ag   -19.323724     1B1u  -19.323697     2Ag    -1.070477
       2B1u   -0.966113     3Ag    -0.472773     1B3u   -0.470142
       1B2u   -0.470142     1B2g   -0.410791     1B3g   -0.410791

    Alpha Virtual:

       3B1u   -0.204616     2B3u    0.488748     2B2u    0.488748
       4B1u    0.493538     4Ag     0.596610     2B2g    0.599754
       2B3g    0.599754     5Ag     0.694958     5B1u    1.052164
       3B2u    1.205180     3B3u    1.205180     6Ag     1.338480
       1B1g    1.339899     7Ag     1.339900     1Au     1.442779
       6B1u    1.442779     3B3g    1.726231     3B2g    1.726231
       7B1u    2.248270     8Ag     3.397736     4B3u    3.435399
       4B2u    3.435399     4B2g    3.504922     4B3g    3.504922
       8B1u    3.710639     9Ag     4.835163     5B3u    4.844963
       5B2u    4.844963     2B1g    4.967602    10Ag     4.967602
       6B2u    5.008407     6B3u    5.008407     5B2g    5.014735
       5B3g    5.014735     2Au     5.049592     9B1u    5.049595
       6B3g    5.191273     6B2g    5.191273    10B1u    5.380737
       7B3u    5.960188     7B2u    5.960188    11Ag     5.993489
       3B1g    5.993498    11B1u    6.070198     3Au     6.070210
      12Ag     6.149515     7B3g    6.362523     7B2g    6.362523
      12B1u    6.874178    13Ag     7.041382    13B1u    7.849597

    Beta Occupied:

       1Ag   -19.294606     1B1u  -19.294541     2Ag    -0.996864
       2B1u   -0.878260     3Ag    -0.446006     1B3u   -0.356146
       1B2u   -0.356146

    Beta Virtual:

       1B2g   -0.229825     1B3g   -0.229825     3B1u   -0.170730
       4B1u    0.506957     2B3u    0.531183     2B2u    0.531183
       4Ag     0.613465     2B2g    0.637599     2B3g    0.637599
       5Ag     0.715913     5B1u    1.081622     3B2u    1.228895
       3B3u    1.228895     6Ag     1.361898     1B1g    1.390009
       7Ag     1.390011     1Au     1.498467     6B1u    1.498469
       3B3g    1.759495     3B2g    1.759495     7B1u    2.274324
       8Ag     3.416210     4B3u    3.508661     4B2u    3.508661
       4B2g    3.579204     4B3g    3.579204     8B1u    3.737172
       9Ag     4.869425     5B3u    4.881277     5B2u    4.881277
      10Ag     5.016897     2B1g    5.016898     6B2u    5.080722
       6B3u    5.080722     5B2g    5.087255     5B3g    5.087255
       2Au     5.099682     9B1u    5.099683     6B3g    5.228920
       6B2g    5.228920    10B1u    5.412453     7B3u    6.022071
       7B2u    6.022071    11Ag     6.099918     3B1g    6.099926
      11B1u    6.175898     3Au     6.175909    12Ag     6.180728
       7B3g    6.421059     7B2g    6.421059    12B1u    6.897637
      13Ag     7.101371    13B1u    7.908897

    Final Occupation by Irrep:
             Ag   B1g   B2g   B3g    Au   B1u   B2u   B3u
    DOCC [     3,    0,    0,    0,    0,    2,    1,    1 ]
    SOCC [     0,    0,    1,    1,    0,    0,    0,    0 ]
    NA   [     3,    0,    1,    1,    0,    2,    1,    1 ]
    NB   [     3,    0,    0,    0,    0,    2,    1,    1 ]

  @DF-UKS Final Energy:  -150.21771610015224

   => Energetics <=

    Nuclear Repulsion Energy =             18.9563831733808392
    One-Electron Energy =                -244.0566690436432395
    Two-Electron Energy =                  88.4404400359319993
    DFT Exchange-Correlation Energy =     -13.5578702658218262
    Empirical Dispersion Energy =           0.0000000000000000
    VV10 Nonlocal Energy =                  0.0000000000000000
    Total Energy =                       -150.2177161001522450

  UHF NO Occupations:
  HONO-2 :    1B3u 1.9975601
  HONO-1 :    1B3g 1.0000000
  HONO-0 :    1B2g 1.0000000
  LUNO+0 :    2B3u 0.0024399
  LUNO+1 :    2B2u 0.0024399
  LUNO+2 :    3B1u 0.0004152
  LUNO+3 :    4 Ag 0.0003398

Computation Completed

Properties will be evaluated at   0.000000,   0.000000,   0.000000 [a0]

Properties computed using the B3LYP density matrix

 Multipole Moments:

 ------------------------------------------------------------------------------------
     Multipole            Electronic (a.u.)      Nuclear  (a.u.)        Total (a.u.)
 ------------------------------------------------------------------------------------

 L = 1.  Multiply by 2.5417464519 to convert [e a0] to [Debye]
 Dipole X            :          0.0000000            0.0000000            0.0000000
 Dipole Y            :          0.0000000            0.0000000            0.0000000
 Dipole Z            :          0.0000000            0.0000000            0.0000000
 Magnitude           :                                                    0.0000000

 L = 2.  Multiply by 1.3450342976 to convert [e a0^2] to [Debye ang]
 Quadrupole XX       :         -7.8354721            0.0000000           -7.8354721
 Quadrupole XY       :          0.0000000            0.0000000            0.0000000
 Quadrupole XZ       :          0.0000000            0.0000000            0.0000000
 Quadrupole YY       :         -7.8354721            0.0000000           -7.8354721
 Quadrupole YZ       :          0.0000000            0.0000000            0.0000000
 Quadrupole ZZ       :        -52.5030372           45.5941351           -6.9089021
 Traceless XX        :         14.8891884          -15.1980450           -0.3088566
 Traceless YY        :         14.8891884          -15.1980450           -0.3088566
 Traceless ZZ        :        -29.7783768           30.3960901            0.6177133

 ------------------------------------------------------------------------------------
  ==> Computing MBIS Charges <==

  Electron Count from Grid (Expected Number): 16.00000 (16.00000)
  Difference:  0.00000

  MBIS Charges: (a.u.)
   Center  Symbol  Z      Pop.       Charge
      1       O    8    8.000000   -0.000000
      2       O    8    8.000000   -0.000000

  MBIS Dipoles: [e a0]
   Center  Symbol  Z        X           Y           Z
      1       O    8    0.000000   -0.000000   -0.066216
      2       O    8   -0.000000    0.000000    0.066216

  MBIS Quadrupoles: [e a0^2]
   Center  Symbol  Z      XX        XY        XZ        YY        YZ        ZZ
      1       O    8   -3.9177   -0.0000    0.0000   -3.9177   -0.0000   -3.6780
      2       O    8   -3.9177   -0.0000    0.0000   -3.9177    0.0000   -3.6780

  MBIS Octupoles: [e a0^3]
   Center  Symbol  Z      XXX       XXY       XXZ       XYY       XYZ       XZZ       YYY       YYZ       YZZ       ZZZ
      1       O    8   -0.0000   -0.0000   -0.1284    0.0000   -0.0000    0.0000   -0.0000   -0.1284   -0.0000   -0.4714
      2       O    8   -0.0000   -0.0000    0.1284    0.0000    0.0000    0.0000    0.0000    0.1284    0.0000    0.4714

  MBIS Radial Moments:
   Center  Symbol  Z      [a0^2]      [a0^3]      [a0^4]
      1       O    8   11.513476   21.953086   50.173515
      2       O    8   11.513476   21.953086   50.173515

  MBIS Valence Widths: [a0]
   Center  Symbol  Z     Width
      1       O    8    0.389576
      2       O    8    0.389576

*** tstop() called on Mac.lan at Sun Aug 10 17:02:36 2025
Module time:
	user time   =       6.31 seconds =       0.11 minutes
	system time =       2.30 seconds =       0.04 minutes
	total time  =          1 seconds =       0.02 minutes
Total time:
	user time   =      19.59 seconds =       0.33 minutes
	system time =       5.06 seconds =       0.08 minutes
	total time  =          3 seconds =       0.05 minutes

    Psi4 stopped on: Sunday, 10 August 2025 05:02PM
    Psi4 wall time for execution: 0:00:02.51

*** Psi4 exiting successfully. Buy a developer a beer!
