                               Psi4 1.9.1 release

  ==> Input File <==

--------------------------------------------------------------------------
molecule {
0 1
H           0.000000           0.000000           0.000000
H           0.000000           0.000000           1.018786
}

set {
basis              cc-pvtz
reference          uks
maxiter            500
DAMPING_PERCENTAGE 1
E_CONVERGENCE      1.0E-8
D_CONVERGENCE      1.0E-8
DIIS_MAX_VECS      400
MBIS_MAXITER       8000
guess              read
}

E, wfn = energy('b3lyp', restart_file='last_wfn', return_wfn=True)
properties('b3lyp','MBIS_CHARGES', wfn=wfn)
wfn.to_file('last_wfn')
--------------------------------------------------------------------------

    Molecular point group: d2h
  Charge       = 0
  Multiplicity = 1
  Basis Set: CC-PVTZ
    Blend: CC-PVTZ
  Basis Set: (CC-PVTZ AUX)
    Blend: CC-PVTZ-JKFIT
  @DF-UKS Final Energy:    -1.14988191893249
    Total Energy =                         -1.1498819189324929
 Dipole X            :          0.0000000            0.0000000            0.0000000
 Dipole Y            :          0.0000000            0.0000000            0.0000000
 Dipole Z            :          0.0000000            0.0000000            0.0000000
 Magnitude           :                                                    0.0000000
    Molecular point group: d2h

    Geometry (in Angstrom), charge = 0, multiplicity = 1:

       Center              X                  Y                   Z               Mass
    ------------   -----------------  -----------------  -----------------  -----------------
         H            0.000000000000     0.000000000000    -0.509393000000     1.007825032230
         H            0.000000000000     0.000000000000     0.509393000000     1.007825032230

  Charge       = 0
  Multiplicity = 1
  Basis Set: CC-PVTZ
    Blend: CC-PVTZ
  Basis Set: (CC-PVTZ AUX)
    Blend: CC-PVTZ-JKFIT

    Orbital Energies [Eh]
    ---------------------

    Alpha Occupied:

       1Ag    -0.386596

    Alpha Virtual:

       1B1u   -0.001171     2Ag     0.214529     2B1u    0.377562
       1B3u    0.495553     1B2u    0.495553     3Ag     0.811089
       1B2g    0.872340     1B3g    0.872340     3B1u    1.287722
       4Ag     2.212158     4B1u    2.301521     2B2u    2.916842
       2B3u    2.916842     5Ag     2.937207     1B1g    2.937207
       6Ag     3.106508     5B1u    3.526753     1Au     3.526753
       3B3u    3.625146     3B2u    3.625146     2B2g    3.692946
       2B3g    3.692946     6B1u    3.798220     3B2g    4.561382
       3B3g    4.561382     7Ag     4.624105     7B1u    5.837233

    Beta Occupied:

       1Ag    -0.386596

    Beta Virtual:

       1B1u   -0.001171     2Ag     0.214529     2B1u    0.377562
       1B3u    0.495553     1B2u    0.495553     3Ag     0.811089
       1B2g    0.872340     1B3g    0.872340     3B1u    1.287722
       4Ag     2.212158     4B1u    2.301521     2B2u    2.916842
       2B3u    2.916842     5Ag     2.937207     1B1g    2.937207
       6Ag     3.106508     5B1u    3.526753     1Au     3.526753
       3B3u    3.625146     3B2u    3.625146     2B2g    3.692946
       2B3g    3.692946     6B1u    3.798220     3B2g    4.561382
       3B3g    4.561382     7Ag     4.624105     7B1u    5.837233

    Final Occupation by Irrep:
             Ag   B1g   B2g   B3g    Au   B1u   B2u   B3u
    DOCC [     1,    0,    0,    0,    0,    0,    0,    0 ]
    SOCC [     0,    0,    0,    0,    0,    0,    0,    0 ]
    NA   [     1,    0,    0,    0,    0,    0,    0,    0 ]
    NB   [     1,    0,    0,    0,    0,    0,    0,    0 ]

  @DF-UKS Final Energy:    -1.14988191884142

   => Energetics <=

    Nuclear Repulsion Energy =              0.5194193978617688
    One-Electron Energy =                  -2.1930212868460623
    Two-Electron Energy =                   1.0372569899859612
    DFT Exchange-Correlation Energy =      -0.5135370198430921
    Empirical Dispersion Energy =           0.0000000000000000
    VV10 Nonlocal Energy =                  0.0000000000000000
    Total Energy =                         -1.1498819188414244

  UHF NO Occupations:
  HONO-0 :    1 Ag 2.0000000
  LUNO+0 :    2 Ag 0.0000000
  LUNO+1 :    3 Ag 0.0000000
  LUNO+2 :    4 Ag 0.0000000
  LUNO+3 :    3B3u 0.0000000

Computation Completed

Properties will be evaluated at   0.000000,   0.000000,   0.000000 [a0]

Properties computed using the B3LYP density matrix

 Multipole Moments:

 ------------------------------------------------------------------------------------
     Multipole            Electronic (a.u.)      Nuclear  (a.u.)        Total (a.u.)
 ------------------------------------------------------------------------------------

 L = 1.  Multiply by 2.5417464519 to convert [e a0] to [Debye]
 Dipole X            :          0.0000000            0.0000000            0.0000000
 Dipole Y            :          0.0000000            0.0000000            0.0000000
 Dipole Z            :          0.0000000            0.0000000            0.0000000
 Magnitude           :                                                    0.0000000

 L = 2.  Multiply by 1.3450342976 to convert [e a0^2] to [Debye ang]
 Quadrupole XX       :         -1.8366839            0.0000000           -1.8366839
 Quadrupole XY       :          0.0000000            0.0000000            0.0000000
 Quadrupole XZ       :          0.0000000            0.0000000            0.0000000
 Quadrupole YY       :         -1.8366839            0.0000000           -1.8366839
 Quadrupole YZ       :          0.0000000            0.0000000            0.0000000
 Quadrupole ZZ       :         -2.9932712            1.8532486           -1.1400227
 Traceless XX        :          0.3855291           -0.6177495           -0.2322204
 Traceless YY        :          0.3855291           -0.6177495           -0.2322204
 Traceless ZZ        :         -0.7710582            1.2354991            0.4644408

 ------------------------------------------------------------------------------------
  ==> Computing MBIS Charges <==

  Electron Count from Grid (Expected Number):  2.00000 ( 2.00000)
  Difference: -0.00000

  MBIS Charges: (a.u.)
   Center  Symbol  Z      Pop.       Charge
      1       H    1    1.000000    0.000000
      2       H    1    1.000000    0.000000

  MBIS Dipoles: [e a0]
   Center  Symbol  Z        X           Y           Z
      1       H    1   -0.000000    0.000000   -0.133649
      2       H    1   -0.000000    0.000000    0.133649

  MBIS Quadrupoles: [e a0^2]
   Center  Symbol  Z      XX        XY        XZ        YY        YZ        ZZ
      1       H    1   -0.9183   -0.0000    0.0000   -0.9183   -0.0000   -0.8273
      2       H    1   -0.9183   -0.0000   -0.0000   -0.9183    0.0000   -0.8273

  MBIS Octupoles: [e a0^3]
   Center  Symbol  Z      XXX       XXY       XXZ       XYY       XYZ       XZZ       YYY       YYZ       YZZ       ZZZ
      1       H    1   -0.0000    0.0000   -0.1102   -0.0000    0.0000   -0.0000    0.0000   -0.1102    0.0000   -0.1865
      2       H    1   -0.0000    0.0000    0.1102   -0.0000   -0.0000   -0.0000    0.0000    0.1102    0.0000    0.1865

  MBIS Radial Moments:
   Center  Symbol  Z      [a0^2]      [a0^3]      [a0^4]
      1       H    1    2.663999    6.286964   17.832490
      2       H    1    2.663999    6.286964   17.832490

  MBIS Valence Widths: [a0]
   Center  Symbol  Z     Width
      1       H    1    0.471538
      2       H    1    0.471538

*** tstop() called on Mac.lan at Sun Aug 10 16:59:58 2025
Module time:
	user time   =       0.55 seconds =       0.01 minutes
	system time =       1.36 seconds =       0.02 minutes
	total time  =          0 seconds =       0.00 minutes
Total time:
	user time   =       1.49 seconds =       0.02 minutes
	system time =       3.53 seconds =       0.06 minutes
	total time  =          1 seconds =       0.02 minutes

    Psi4 stopped on: Sunday, 10 August 2025 04:59PM
    Psi4 wall time for execution: 0:00:00.78

*** Psi4 exiting successfully. Buy a developer a beer!
