                               Psi4 1.9.1 release

  ==> Input File <==

--------------------------------------------------------------------------
molecule {
0 2
C           0.000000           0.000000           0.000000
H           0.000000           0.000000           0.798056
}

set {
basis              cc-pvtz
reference          uks
maxiter            500
DAMPING_PERCENTAGE 1
E_CONVERGENCE      1.0E-8
D_CONVERGENCE      1.0E-8
DIIS_MAX_VECS      400
MBIS_MAXITER       8000
guess              read
}

E, wfn = energy('b3lyp', restart_file='last_wfn', return_wfn=True)
properties('b3lyp','MBIS_CHARGES', wfn=wfn)
wfn.to_file('last_wfn')
--------------------------------------------------------------------------

    Molecular point group: c2v
  Charge       = 0
  Multiplicity = 2
  Basis Set: CC-PVTZ
    Blend: CC-PVTZ
  Basis Set: (CC-PVTZ AUX)
    Blend: CC-PVTZ-JKFIT
  @DF-UKS Final Energy:   -38.38793830339910
    Total Energy =                        -38.3879383033991033
 Dipole X            :          0.0000000            0.0000000            0.0000000
 Dipole Y            :          0.0000000            0.0000000            0.0000000
 Dipole Z            :          0.0718918            0.6901875            0.7620792
 Magnitude           :                                                    0.7620792
    Molecular point group: c2v

    Geometry (in Angstrom), charge = 0, multiplicity = 2:

       Center              X                  Y                   Z               Mass
    ------------   -----------------  -----------------  -----------------  -----------------
         C            0.000000000000     0.000000000000    -0.061832075072    12.000000000000
         H            0.000000000000     0.000000000000     0.736223924928     1.007825032230

  Charge       = 0
  Multiplicity = 2
  Basis Set: CC-PVTZ
    Blend: CC-PVTZ
  Basis Set: (CC-PVTZ AUX)
    Blend: CC-PVTZ-JKFIT

    Orbital Energies [Eh]
    ---------------------

    Alpha Occupied:

       1A1   -10.245035     2A1    -0.744371     3A1    -0.324641
       1B1    -0.260627

    Alpha Virtual:

       1B2    -0.149172     4A1     0.074627     5A1     0.285326
       2B1     0.291329     2B2     0.310258     6A1     0.376500
       7A1     0.596032     3B1     0.617498     3B2     0.622414
       1A2     0.654199     8A1     0.660268     9A1     1.008261
       4B1     1.087865     4B2     1.088081    10A1     1.857864
      11A1     1.914500     5B1     1.924724     5B2     1.948876
      12A1     2.196374     2A2     2.569278    13A1     2.573179
       6B1     2.643100     6B2     2.645292     7B1     2.709753
       7B2     2.718158     3A2     2.887060    14A1     2.897337
       8B1     3.022003     8B2     3.023820    15A1     3.041721
      16A1     3.791544     4A2     3.944238    17A1     3.947354
       9B2     4.015660     9B1     4.017025    10B1     5.536181
      10B2     5.539338    18A1     5.563177    19A1     5.915705
      20A1    12.728639

    Beta Occupied:

       1A1   -10.230611     2A1    -0.705750     3A1    -0.299271

    Beta Virtual:

       1B2    -0.132990     1B1    -0.087237     4A1     0.077299
       5A1     0.291819     2B2     0.317431     2B1     0.344981
       6A1     0.391570     7A1     0.609664     3B2     0.625304
       3B1     0.652999     1A2     0.697693     8A1     0.698121
       9A1     1.018750     4B2     1.089145     4B1     1.107512
      10A1     1.879794    11A1     1.923706     5B2     1.960755
       5B1     2.003995    12A1     2.224604     2A2     2.603737
      13A1     2.604191     6B2     2.700226     6B1     2.700894
       7B2     2.722378     7B1     2.759481    14A1     2.954109
       3A2     2.957735     8B2     3.027339     8B1     3.060208
      15A1     3.063877    16A1     3.802570     4A2     3.966380
      17A1     3.967615     9B2     4.015542     9B1     4.035426
      10B2     5.541608    10B1     5.571521    18A1     5.575749
      19A1     5.922595    20A1    12.743676

    Final Occupation by Irrep:
             A1    A2    B1    B2
    DOCC [     3,    0,    0,    0 ]
    SOCC [     0,    0,    1,    0 ]
    NA   [     3,    0,    1,    0 ]
    NB   [     3,    0,    0,    0 ]

  @DF-UKS Final Energy:   -38.38793830509736

   => Energetics <=

    Nuclear Repulsion Energy =              3.9784968273153765
    One-Electron Energy =                 -58.5546017462267869
    Two-Electron Energy =                  20.8548581905388062
    DFT Exchange-Correlation Energy =      -4.6666915767247561
    Empirical Dispersion Energy =           0.0000000000000000
    VV10 Nonlocal Energy =                  0.0000000000000000
    Total Energy =                        -38.3879383050973644

  UHF NO Occupations:
  HONO-2 :    2 A1 1.9999059
  HONO-1 :    3 A1 1.9987989
  HONO-0 :    1 B1 1.0000000
  LUNO+0 :    4 A1 0.0012011
  LUNO+1 :    5 A1 0.0000941
  LUNO+2 :    6 A1 0.0000007
  LUNO+3 :    7 A1 0.0000000

Computation Completed

Properties will be evaluated at   0.000000,   0.000000,   0.000000 [a0]

Properties computed using the B3LYP density matrix

 Multipole Moments:

 ------------------------------------------------------------------------------------
     Multipole            Electronic (a.u.)      Nuclear  (a.u.)        Total (a.u.)
 ------------------------------------------------------------------------------------

 L = 1.  Multiply by 2.5417464519 to convert [e a0] to [Debye]
 Dipole X            :          0.0000000            0.0000000            0.0000000
 Dipole Y            :          0.0000000            0.0000000            0.0000000
 Dipole Z            :          0.0718918            0.6901875            0.7620792
 Magnitude           :                                                    0.7620792

 L = 2.  Multiply by 1.3450342976 to convert [e a0^2] to [Debye ang]
 Quadrupole XX       :         -5.4581052            0.0000000           -5.4581052
 Quadrupole XY       :          0.0000000            0.0000000            0.0000000
 Quadrupole XZ       :          0.0000000            0.0000000            0.0000000
 Quadrupole YY       :         -3.9671265            0.0000000           -3.9671265
 Quadrupole YZ       :          0.0000000            0.0000000            0.0000000
 Quadrupole ZZ       :         -7.4374316            2.0175263           -5.4199053
 Traceless XX        :          0.1627826           -0.6725088           -0.5097262
 Traceless YY        :          1.6537613           -0.6725088            0.9812525
 Traceless ZZ        :         -1.8165439            1.3450175           -0.4715263

 ------------------------------------------------------------------------------------
  ==> Computing MBIS Charges <==

  Electron Count from Grid (Expected Number):  7.00000 ( 7.00000)
  Difference: -0.00000

  MBIS Charges: (a.u.)
   Center  Symbol  Z      Pop.       Charge
      1       C    6    6.145996   -0.145996
      2       H    1    0.854004    0.145996

  MBIS Dipoles: [e a0]
   Center  Symbol  Z        X           Y           Z
      1       C    6   -0.000000   -0.000000    0.510617
      2       H    1    0.000000   -0.000000    0.031284

  MBIS Quadrupoles: [e a0^2]
   Center  Symbol  Z      XX        XY        XZ        YY        YZ        ZZ
      1       C    6   -5.1386   -0.0000    0.0000   -3.6943    0.0000   -5.3662
      2       H    1   -0.3195    0.0000    0.0000   -0.2728    0.0000   -0.3020

  MBIS Octupoles: [e a0^3]
   Center  Symbol  Z      XXX       XXY       XXZ       XYY       XYZ       XZZ       YYY       YYZ       YZZ       ZZZ
      1       C    6   -0.0000    0.0000    0.8237   -0.0000   -0.0000   -0.0000    0.0000    0.9340    0.0000    2.0523
      2       H    1    0.0000    0.0000    0.0094   -0.0000    0.0000    0.0000   -0.0000   -0.0038    0.0000    0.0046

  MBIS Radial Moments:
   Center  Symbol  Z      [a0^2]      [a0^3]      [a0^4]
      1       C    6   14.199066   35.133721   103.316705
      2       H    1    0.894392    1.291146    2.236939

  MBIS Valence Widths: [a0]
   Center  Symbol  Z     Width
      1       C    6    0.518045
      2       H    1    0.299514

*** tstop() called on Mac.lan at Sun Aug 10 17:08:50 2025
Module time:
	user time   =       3.26 seconds =       0.05 minutes
	system time =       1.65 seconds =       0.03 minutes
	total time  =          1 seconds =       0.02 minutes
Total time:
	user time   =      10.41 seconds =       0.17 minutes
	system time =       4.04 seconds =       0.07 minutes
	total time  =          1 seconds =       0.02 minutes

    Psi4 stopped on: Sunday, 10 August 2025 05:08PM
    Psi4 wall time for execution: 0:00:01.42

*** Psi4 exiting successfully. Buy a developer a beer!
