                               Psi4 1.9.1 release

  ==> Input File <==

--------------------------------------------------------------------------
molecule {
0 2
N           0.000000           0.000000           0.000000
C           0.000000           0.000000           1.423816
}

set {
basis              cc-pvtz
reference          uks
maxiter            500
DAMPING_PERCENTAGE 1
E_CONVERGENCE      1.0E-8
D_CONVERGENCE      1.0E-8
DIIS_MAX_VECS      400
MBIS_MAXITER       8000
guess              read
}

E, wfn = energy('b3lyp', restart_file='last_wfn', return_wfn=True)
properties('b3lyp','MBIS_CHARGES', wfn=wfn)
wfn.to_file('last_wfn')
--------------------------------------------------------------------------

    Molecular point group: c2v
  Charge       = 0
  Multiplicity = 2
  Basis Set: CC-PVTZ
    Blend: CC-PVTZ
  Basis Set: (CC-PVTZ AUX)
    Blend: CC-PVTZ-JKFIT
  @DF-UKS Final Energy:   -92.66643028246159
    Total Energy =                        -92.6664302824615902
 Dipole X            :          0.0000000            0.0000000            0.0000000
 Dipole Y            :          0.0000000            0.0000000            0.0000000
 Dipole Z            :          0.4034925            0.0019085            0.4054009
 Magnitude           :                                                    0.4054009
    Molecular point group: c2v

    Geometry (in Angstrom), charge = 0, multiplicity = 2:

       Center              X                  Y                   Z               Mass
    ------------   -----------------  -----------------  -----------------  -----------------
         N            0.000000000000     0.000000000000    -0.657068160368    14.003074004430
         C            0.000000000000     0.000000000000     0.766747839632    12.000000000000

  Charge       = 0
  Multiplicity = 2
  Basis Set: CC-PVTZ
    Blend: CC-PVTZ
  Basis Set: (CC-PVTZ AUX)
    Blend: CC-PVTZ-JKFIT

    Orbital Energies [Eh]
    ---------------------

    Alpha Occupied:

       1A1   -14.442196     2A1   -10.356185     3A1    -0.880997
       4A1    -0.551651     5A1    -0.409767     1B2    -0.351189
       1B1    -0.351189

    Alpha Virtual:

       2B1    -0.096217     2B2    -0.096217     6A1     0.143490
       3B1     0.290306     3B2     0.290306     7A1     0.291279
       8A1     0.326338     9A1     0.434993     4B1     0.500813
       4B2     0.500813     1A2     0.626338    10A1     0.626338
       5B1     0.734575     5B2     0.734575    11A1     0.871901
      12A1     1.055558     2A2     1.097109    13A1     1.097109
       6B1     1.397587     6B2     1.397587    14A1     1.609115
       7B1     1.955598     7B2     1.955598    15A1     2.127201
       3A2     2.624689    16A1     2.624690     8B2     2.625222
       8B1     2.625222     9B2     2.626751     9B1     2.626751
      17A1     2.859134     4A2     2.897888    18A1     2.897891
      10B1     2.899839    10B2     2.899839    19A1     2.942637
      11B1     3.225641    11B2     3.225641    20A1     3.299217
      12B1     3.874545    12B2     3.874545    21A1     4.088066
       5A2     4.088066    22A1     4.403813    23A1     4.454493
       6A2     4.454507    13B2     4.517035    13B1     4.517035
      24A1     4.894059    14B1     4.980086    14B2     4.980086
      25A1     5.418931    26A1     8.450985

    Beta Occupied:

       1A1   -14.434640     2A1   -10.344154     3A1    -0.853195
       4A1    -0.485013     1B2    -0.343860     1B1    -0.343860

    Beta Virtual:

       5A1    -0.254335     2B1    -0.079020     2B2    -0.079020
       6A1     0.157730     3B1     0.297125     3B2     0.297125
       7A1     0.323613     8A1     0.364998     9A1     0.463575
       4B1     0.502077     4B2     0.502077     1A2     0.633480
      10A1     0.633480     5B1     0.762440     5B2     0.762440
      11A1     0.884178    12A1     1.091462    13A1     1.097904
       2A2     1.097904     6B1     1.420738     6B2     1.420738
      14A1     1.638851     7B1     1.967211     7B2     1.967211
      15A1     2.175006     8B2     2.637134     8B1     2.637134
       9B2     2.646468     9B1     2.646468     3A2     2.647244
      16A1     2.647244    17A1     2.916596     4A2     2.917893
      18A1     2.917896    10B1     2.930595    10B2     2.930595
      19A1     2.986828    11B1     3.265666    11B2     3.265666
      20A1     3.349121    12B1     3.869670    12B2     3.869670
      21A1     4.099920     5A2     4.099921    22A1     4.442146
      23A1     4.455278     6A2     4.455292    13B2     4.549031
      13B1     4.549031    24A1     4.946597    14B1     5.015309
      14B2     5.015309    25A1     5.441333    26A1     8.470690

    Final Occupation by Irrep:
             A1    A2    B1    B2
    DOCC [     4,    0,    1,    1 ]
    SOCC [     1,    0,    0,    0 ]
    NA   [     5,    0,    1,    1 ]
    NB   [     4,    0,    1,    1 ]

  @DF-UKS Final Energy:   -92.66643028201676

   => Energetics <=

    Nuclear Repulsion Energy =             15.6097718020727410
    One-Electron Energy =                -155.4356320159313611
    Two-Electron Energy =                  56.8280617548127225
    DFT Exchange-Correlation Energy =      -9.6686318229708590
    Empirical Dispersion Energy =           0.0000000000000000
    VV10 Nonlocal Energy =                  0.0000000000000000
    Total Energy =                        -92.6664302820167620

  UHF NO Occupations:
  HONO-2 :    1 B1 1.9988016
  HONO-1 :    4 A1 1.9973150
  HONO-0 :    5 A1 1.0000000
  LUNO+0 :    6 A1 0.0026850
  LUNO+1 :    2 B1 0.0011984
  LUNO+2 :    2 B2 0.0011984
  LUNO+3 :    7 A1 0.0001995

Computation Completed

Properties will be evaluated at   0.000000,   0.000000,   0.000000 [a0]

Properties computed using the B3LYP density matrix

 Multipole Moments:

 ------------------------------------------------------------------------------------
     Multipole            Electronic (a.u.)      Nuclear  (a.u.)        Total (a.u.)
 ------------------------------------------------------------------------------------

 L = 1.  Multiply by 2.5417464519 to convert [e a0] to [Debye]
 Dipole X            :          0.0000000            0.0000000            0.0000000
 Dipole Y            :          0.0000000            0.0000000            0.0000000
 Dipole Z            :          0.4034925            0.0019085            0.4054009
 Magnitude           :                                                    0.4054009

 L = 2.  Multiply by 1.3450342976 to convert [e a0^2] to [Debye ang]
 Quadrupole XX       :         -8.7244534            0.0000000           -8.7244534
 Quadrupole XY       :          0.0000000            0.0000000            0.0000000
 Quadrupole XZ       :          0.0000000            0.0000000            0.0000000
 Quadrupole YY       :         -8.7244534            0.0000000           -8.7244534
 Quadrupole YZ       :          0.0000000            0.0000000            0.0000000
 Quadrupole ZZ       :        -30.9482370           23.3889872           -7.5592499
 Traceless XX        :          7.4079279           -7.7963291           -0.3884012
 Traceless YY        :          7.4079279           -7.7963291           -0.3884012
 Traceless ZZ        :        -14.8158557           15.5926581            0.7768024

 ------------------------------------------------------------------------------------
  ==> Computing MBIS Charges <==

  Electron Count from Grid (Expected Number): 13.00000 (13.00000)
  Difference:  0.00000

  MBIS Charges: (a.u.)
   Center  Symbol  Z      Pop.       Charge
      1       N    7    7.184265   -0.184265
      2       C    6    5.815736    0.184264

  MBIS Dipoles: [e a0]
   Center  Symbol  Z        X           Y           Z
      1       N    7    0.000000   -0.000000   -0.250768
      2       C    6   -0.000000    0.000000    0.160382

  MBIS Quadrupoles: [e a0^2]
   Center  Symbol  Z      XX        XY        XZ        YY        YZ        ZZ
      1       N    7   -4.4658    0.0000   -0.0000   -4.4658   -0.0000   -4.4213
      2       C    6   -4.2586    0.0000    0.0000   -4.2586    0.0000   -4.3282

  MBIS Octupoles: [e a0^3]
   Center  Symbol  Z      XXX       XXY       XXZ       XYY       XYZ       XZZ       YYY       YYZ       YZZ       ZZZ
      1       N    7    0.0000   -0.0000   -0.3785    0.0000    0.0000   -0.0000   -0.0000   -0.3785   -0.0000   -0.9656
      2       C    6   -0.0000   -0.0000    0.3536   -0.0000   -0.0000   -0.0000    0.0000    0.3536    0.0000    0.7381

  MBIS Radial Moments:
   Center  Symbol  Z      [a0^2]      [a0^3]      [a0^4]
      1       N    7   13.352890   28.912899   74.580863
      2       C    6   12.845541   31.115043   89.552624

  MBIS Valence Widths: [a0]
   Center  Symbol  Z     Width
      1       N    7    0.452153
      2       C    6    0.513578

*** tstop() called on Mac.lan at Sun Aug 10 17:14:19 2025
Module time:
	user time   =       3.34 seconds =       0.06 minutes
	system time =       2.53 seconds =       0.04 minutes
	total time  =          1 seconds =       0.02 minutes
Total time:
	user time   =      22.11 seconds =       0.37 minutes
	system time =       4.89 seconds =       0.08 minutes
	total time  =          3 seconds =       0.05 minutes

    Psi4 stopped on: Sunday, 10 August 2025 05:14PM
    Psi4 wall time for execution: 0:00:02.61

*** Psi4 exiting successfully. Buy a developer a beer!
