                               Psi4 1.9.1 release

  ==> Input File <==

--------------------------------------------------------------------------
molecule {
0 2
C           0.000000           0.000000           0.000000
H           0.000000           0.000000           1.148926
}

set {
basis              cc-pvtz
reference          uks
maxiter            500
DAMPING_PERCENTAGE 1
E_CONVERGENCE      1.0E-8
D_CONVERGENCE      1.0E-8
DIIS_MAX_VECS      400
MBIS_MAXITER       8000
guess              read
}

E, wfn = energy('b3lyp', restart_file='last_wfn', return_wfn=True)
properties('b3lyp','MBIS_CHARGES', wfn=wfn)
wfn.to_file('last_wfn')
--------------------------------------------------------------------------

    Molecular point group: c2v
  Charge       = 0
  Multiplicity = 2
  Basis Set: CC-PVTZ
    Blend: CC-PVTZ
  Basis Set: (CC-PVTZ AUX)
    Blend: CC-PVTZ-JKFIT
  @DF-UKS Final Energy:   -38.49596176501105
    Total Energy =                        -38.4959617650110459
 Dipole X            :          0.0000000            0.0000000            0.0000000
 Dipole Y            :          0.0000000            0.0000000            0.0000000
 Dipole Z            :         -0.4322725            0.9936324            0.5613599
 Magnitude           :                                                    0.5613599
    Molecular point group: c2v

    Geometry (in Angstrom), charge = 0, multiplicity = 2:

       Center              X                  Y                   Z               Mass
    ------------   -----------------  -----------------  -----------------  -----------------
         C            0.000000000000     0.000000000000    -0.089016909446    12.000000000000
         H            0.000000000000     0.000000000000     1.059909090554     1.007825032230

  Charge       = 0
  Multiplicity = 2
  Basis Set: CC-PVTZ
    Blend: CC-PVTZ
  Basis Set: (CC-PVTZ AUX)
    Blend: CC-PVTZ-JKFIT

    Orbital Energies [Eh]
    ---------------------

    Alpha Occupied:

       1A1   -10.284324     2A1    -0.645350     3A1    -0.324028
       1B1    -0.259982

    Alpha Virtual:

       1B2    -0.147986     4A1     0.055064     5A1     0.281493
       2B1     0.291373     2B2     0.311044     6A1     0.344044
       7A1     0.443406     3B1     0.565332     3B2     0.568573
       1A2     0.654941     8A1     0.660687     9A1     0.947237
       4B1     1.020672     4B2     1.021051    10A1     1.349433
       5B1     1.927598     5B2     1.953787    11A1     2.072659
      12A1     2.207065     2A2     2.522324    13A1     2.526021
       6B1     2.604395     6B2     2.610687     7B1     2.641211
       7B2     2.643729    14A1     2.876356     3A2     2.900485
      15A1     2.916392     8B1     3.049564     8B2     3.058239
      16A1     3.196383     4A2     3.527028    17A1     3.528696
       9B2     3.783122     9B1     3.785599    18A1     4.358172
      10B1     4.606637    10B2     4.607705    19A1     4.672255
      20A1     7.770372

    Beta Occupied:

       1A1   -10.269574     2A1    -0.602536     3A1    -0.304179

    Beta Virtual:

       1B2    -0.131911     1B1    -0.085936     4A1     0.060583
       5A1     0.288127     2B2     0.318493     2B1     0.347084
       6A1     0.354650     7A1     0.459027     3B2     0.569974
       3B1     0.592521     8A1     0.698182     1A2     0.698463
       9A1     0.960128     4B2     1.022486     4B1     1.042108
      10A1     1.360005     5B2     1.965298     5B1     2.009332
      11A1     2.081770    12A1     2.222677     2A2     2.552425
      13A1     2.552708     6B2     2.613692     6B1     2.646169
       7B2     2.699791     7B1     2.700625    14A1     2.895525
       3A2     2.978132    15A1     2.983814     8B2     3.062725
       8B1     3.102142    16A1     3.210751     4A2     3.537977
      17A1     3.538374     9B2     3.779243     9B1     3.788446
      18A1     4.366697    10B2     4.608478    10B1     4.631355
      19A1     4.677481    20A1     7.787165

    Final Occupation by Irrep:
             A1    A2    B1    B2
    DOCC [     3,    0,    0,    0 ]
    SOCC [     0,    0,    1,    0 ]
    NA   [     3,    0,    1,    0 ]
    NB   [     3,    0,    0,    0 ]

  @DF-UKS Final Energy:   -38.49596176463813

   => Energetics <=

    Nuclear Repulsion Energy =              2.7635054511952908
    One-Electron Energy =                 -56.5498060411057608
    Two-Electron Energy =                  19.8314558133539798
    DFT Exchange-Correlation Energy =      -4.5411169880816429
    Empirical Dispersion Energy =           0.0000000000000000
    VV10 Nonlocal Energy =                  0.0000000000000000
    Total Energy =                        -38.4959617646381247

  UHF NO Occupations:
  HONO-2 :    2 A1 1.9998258
  HONO-1 :    3 A1 1.9986684
  HONO-0 :    1 B1 1.0000000
  LUNO+0 :    4 A1 0.0013316
  LUNO+1 :    5 A1 0.0001742
  LUNO+2 :    6 A1 0.0000007
  LUNO+3 :    7 A1 0.0000000

Computation Completed

Properties will be evaluated at   0.000000,   0.000000,   0.000000 [a0]

Properties computed using the B3LYP density matrix

 Multipole Moments:

 ------------------------------------------------------------------------------------
     Multipole            Electronic (a.u.)      Nuclear  (a.u.)        Total (a.u.)
 ------------------------------------------------------------------------------------

 L = 1.  Multiply by 2.5417464519 to convert [e a0] to [Debye]
 Dipole X            :          0.0000000            0.0000000            0.0000000
 Dipole Y            :          0.0000000            0.0000000            0.0000000
 Dipole Z            :         -0.4322725            0.9936324            0.5613599
 Magnitude           :                                                    0.5613599

 L = 2.  Multiply by 1.3450342976 to convert [e a0^2] to [Debye ang]
 Quadrupole XX       :         -5.7211318            0.0000000           -5.7211318
 Quadrupole XY       :          0.0000000            0.0000000            0.0000000
 Quadrupole XZ       :          0.0000000            0.0000000            0.0000000
 Quadrupole YY       :         -4.2263589            0.0000000           -4.2263589
 Quadrupole YZ       :          0.0000000            0.0000000            0.0000000
 Quadrupole ZZ       :         -9.7485827            4.1815432           -5.5670395
 Traceless XX        :          0.8442260           -1.3938477           -0.5496218
 Traceless YY        :          2.3389989           -1.3938477            0.9451512
 Traceless ZZ        :         -3.1832249            2.7876954           -0.3955295

 ------------------------------------------------------------------------------------
  ==> Computing MBIS Charges <==

  Electron Count from Grid (Expected Number):  7.00000 ( 7.00000)
  Difference: -0.00000

  MBIS Charges: (a.u.)
   Center  Symbol  Z      Pop.       Charge
      1       C    6    6.083158   -0.083158
      2       H    1    0.916842    0.083158

  MBIS Dipoles: [e a0]
   Center  Symbol  Z        X           Y           Z
      1       C    6   -0.000000    0.000000    0.331027
      2       H    1   -0.000000    0.000000    0.049783

  MBIS Quadrupoles: [e a0^2]
   Center  Symbol  Z      XX        XY        XZ        YY        YZ        ZZ
      1       C    6   -5.1391    0.0000   -0.0000   -3.7158   -0.0000   -5.4096
      2       H    1   -0.5820   -0.0000    0.0000   -0.5106   -0.0000   -0.5767

  MBIS Octupoles: [e a0^3]
   Center  Symbol  Z      XXX       XXY       XXZ       XYY       XYZ       XZZ       YYY       YYZ       YZZ       ZZZ
      1       C    6    0.0000    0.0000    0.4468    0.0000   -0.0000   -0.0000    0.0000    0.4677   -0.0000    0.8327
      2       H    1    0.0000    0.0000    0.0012   -0.0000   -0.0000    0.0000   -0.0000   -0.0396   -0.0000   -0.0306

  MBIS Radial Moments:
   Center  Symbol  Z      [a0^2]      [a0^3]      [a0^4]
      1       C    6   14.264503   35.642579   106.526682
      2       H    1    1.669340    3.231541    7.546235

  MBIS Valence Widths: [a0]
   Center  Symbol  Z     Width
      1       C    6    0.523626
      2       H    1    0.392090

*** tstop() called on Mac.lan at Sun Aug 10 17:08:17 2025
Module time:
	user time   =       2.68 seconds =       0.04 minutes
	system time =       1.98 seconds =       0.03 minutes
	total time  =          1 seconds =       0.02 minutes
Total time:
	user time   =      11.96 seconds =       0.20 minutes
	system time =       4.12 seconds =       0.07 minutes
	total time  =          2 seconds =       0.03 minutes

    Psi4 stopped on: Sunday, 10 August 2025 05:08PM
    Psi4 wall time for execution: 0:00:01.58

*** Psi4 exiting successfully. Buy a developer a beer!
