                               Psi4 1.9.1 release

  ==> Input File <==

--------------------------------------------------------------------------
molecule {
0 2
O           0.000000           0.000000           0.000000
N           0.000000           0.000000           0.708619
}

set {
basis              cc-pvtz
reference          uks
maxiter            500
DAMPING_PERCENTAGE 1
E_CONVERGENCE      1.0E-8
D_CONVERGENCE      1.0E-8
DIIS_MAX_VECS      400
MBIS_MAXITER       8000
guess              read
}

E, wfn = energy('b3lyp', restart_file='last_wfn', return_wfn=True)
properties('b3lyp','MBIS_CHARGES', wfn=wfn)
wfn.to_file('last_wfn')
--------------------------------------------------------------------------

    Molecular point group: c2v
  Charge       = 0
  Multiplicity = 2
  Basis Set: CC-PVTZ
    Blend: CC-PVTZ
  Basis Set: (CC-PVTZ AUX)
    Blend: CC-PVTZ-JKFIT
  @DF-UKS Final Energy:  -128.65247894419946
    Total Energy =                       -128.6524789441994585
 Dipole X            :          0.0000000            0.0000000            0.0000000
 Dipole Y            :          0.0000000            0.0000000            0.0000000
 Dipole Z            :         -0.6154719           -0.0026868           -0.6181588
 Magnitude           :                                                    0.6181588
    Molecular point group: c2v

    Geometry (in Angstrom), charge = 0, multiplicity = 2:

       Center              X                  Y                   Z               Mass
    ------------   -----------------  -----------------  -----------------  -----------------
         O            0.000000000000     0.000000000000    -0.330783654275    15.994914619570
         N            0.000000000000     0.000000000000     0.377835345725    14.003074004430

  Charge       = 0
  Multiplicity = 2
  Basis Set: CC-PVTZ
    Blend: CC-PVTZ
  Basis Set: (CC-PVTZ AUX)
    Blend: CC-PVTZ-JKFIT

    Orbital Energies [Eh]
    ---------------------

    Alpha Occupied:

       1A1   -19.280748     2A1   -14.413603     3A1    -1.603559
       1B1    -0.838813     1B2    -0.829574     4A1    -0.674626
       5A1    -0.503094     2B1     0.039205

    Alpha Virtual:

       2B2     0.131314     6A1     0.226642     3B1     0.333443
       3B2     0.334171     7A1     0.394262     8A1     0.528013
       4B1     0.634405     4B2     0.653483     1A2     0.874060
       9A1     0.875671    10A1     1.212980    11A1     1.379074
       5B1     1.387167     5B2     1.392812     2A2     1.665028
      12A1     1.666929    13A1     1.987186     6B1     2.011127
       6B2     2.014771     7B1     2.627973     7B2     2.632373
      14A1     3.135372    15A1     3.304856     8B1     3.667668
       8B2     3.667801    16A1     3.961644     3A2     3.967644
      17A1     3.973804     9B1     4.030261     9B2     4.035125
       4A2     4.345057    18A1     4.347393    10B1     4.353055
      10B2     4.353632    19A1     4.726600    11B1     5.153633
      11B2     5.154307    12B1     5.282797    12B2     5.282887
       5A2     6.036046    20A1     6.037483    21A1     6.199576
      13B2     6.756268    13B1     6.757755     6A2     6.953689
      22A1     6.954831    23A1     7.190315    24A1     8.641990
      14B1     8.835594    14B2     8.838233    25A1    10.682173
      26A1    26.357575

    Beta Occupied:

       1A1   -19.271946     2A1   -14.406903     3A1    -1.593704
       1B2    -0.822804     1B1    -0.790455     4A1    -0.651874
       5A1    -0.470350

    Beta Virtual:

       2B2     0.142872     2B1     0.173224     6A1     0.233691
       3B2     0.337138     3B1     0.356682     7A1     0.404766
       8A1     0.543701     4B2     0.660914     4B1     0.682985
       9A1     0.895585     1A2     0.895678    10A1     1.222277
      11A1     1.394140     5B2     1.396929     5B1     1.424812
       2A2     1.695022    12A1     1.695409    13A1     1.998088
       6B2     2.019886     6B1     2.042622     7B2     2.638702
       7B1     2.667217    14A1     3.156409    15A1     3.315554
       8B2     3.691286     8B1     3.691320    16A1     3.976596
       3A2     3.983931    17A1     3.988270     9B2     4.040582
       9B1     4.068454    10B2     4.357504     4A2     4.379424
      18A1     4.379543    10B1     4.387799    19A1     4.738776
      11B2     5.158446    11B1     5.185618    12B2     5.308516
      12B1     5.308536    20A1     6.067025     5A2     6.067819
      21A1     6.213931    13B2     6.759365    13B1     6.785285
       6A2     6.977247    22A1     6.977329    23A1     7.196725
      24A1     8.651034    14B2     8.843652    14B1     8.872241
      25A1    10.699621    26A1    26.368956

    Final Occupation by Irrep:
             A1    A2    B1    B2
    DOCC [     5,    0,    1,    1 ]
    SOCC [     0,    0,    1,    0 ]
    NA   [     5,    0,    2,    1 ]
    NB   [     5,    0,    1,    1 ]

  @DF-UKS Final Energy:  -128.65247894363253

   => Energetics <=

    Nuclear Repulsion Energy =             41.8192622516754469
    One-Electron Energy =                -255.4609066816084919
    Two-Electron Energy =                  98.0553489219093564
    DFT Exchange-Correlation Energy =     -13.0661834356088349
    Empirical Dispersion Energy =           0.0000000000000000
    VV10 Nonlocal Energy =                  0.0000000000000000
    Total Energy =                       -128.6524789436325307

  UHF NO Occupations:
  HONO-2 :    1 B1 1.9998925
  HONO-1 :    5 A1 1.9997873
  HONO-0 :    2 B1 1.0000000
  LUNO+0 :    6 A1 0.0002127
  LUNO+1 :    3 B1 0.0001075
  LUNO+2 :    7 A1 0.0000620
  LUNO+3 :    2 B2 0.0000065

Computation Completed

Properties will be evaluated at   0.000000,   0.000000,   0.000000 [a0]

Properties computed using the B3LYP density matrix

 Multipole Moments:

 ------------------------------------------------------------------------------------
     Multipole            Electronic (a.u.)      Nuclear  (a.u.)        Total (a.u.)
 ------------------------------------------------------------------------------------

 L = 1.  Multiply by 2.5417464519 to convert [e a0] to [Debye]
 Dipole X            :          0.0000000            0.0000000            0.0000000
 Dipole Y            :          0.0000000            0.0000000            0.0000000
 Dipole Z            :         -0.6154719           -0.0026868           -0.6181588
 Magnitude           :                                                    0.6181588

 L = 2.  Multiply by 1.3450342976 to convert [e a0^2] to [Debye ang]
 Quadrupole XX       :         -7.7948388            0.0000000           -7.7948388
 Quadrupole XY       :          0.0000000            0.0000000            0.0000000
 Quadrupole XZ       :          0.0000000            0.0000000            0.0000000
 Quadrupole YY       :         -6.2568957            0.0000000           -6.2568957
 Quadrupole YZ       :          0.0000000            0.0000000            0.0000000
 Quadrupole ZZ       :        -15.3153114            6.6945304           -8.6207810
 Traceless XX        :          1.9941765           -2.2315101           -0.2373336
 Traceless YY        :          3.5321196           -2.2315101            1.3006095
 Traceless ZZ        :         -5.5262961            4.4630203           -1.0632758

 ------------------------------------------------------------------------------------
  ==> Computing MBIS Charges <==

  Electron Count from Grid (Expected Number): 15.00000 (15.00000)
  Difference:  0.00000

  MBIS Charges: (a.u.)
   Center  Symbol  Z      Pop.       Charge
      1       O    8    7.652706    0.347294
      2       N    7    7.347296   -0.347296

  MBIS Dipoles: [e a0]
   Center  Symbol  Z        X           Y           Z
      1       O    8    0.000000   -0.000000    0.115066
      2       N    7   -0.000000    0.000000   -0.268162

  MBIS Quadrupoles: [e a0^2]
   Center  Symbol  Z      XX        XY        XZ        YY        YZ        ZZ
      1       O    8   -2.7932   -0.0000   -0.0000   -2.5092    0.0000   -3.1731
      2       N    7   -5.0016   -0.0000    0.0000   -3.7477    0.0000   -4.8796

  MBIS Octupoles: [e a0^3]
   Center  Symbol  Z      XXX       XXY       XXZ       XYY       XYZ       XZZ       YYY       YYZ       YZZ       ZZZ
      1       O    8    0.0000   -0.0000    0.2151    0.0000    0.0000    0.0000   -0.0000    0.1581   -0.0000    0.4520
      2       N    7    0.0000   -0.0000   -1.3500    0.0000   -0.0000   -0.0000    0.0000   -0.4253    0.0000   -0.3659

  MBIS Radial Moments:
   Center  Symbol  Z      [a0^2]      [a0^3]      [a0^4]
      1       O    8    8.475512   14.252562   29.156380
      2       N    7   13.628861   30.798846   83.882246

  MBIS Valence Widths: [a0]
   Center  Symbol  Z     Width
      1       O    8    0.340298
      2       N    7    0.444078

*** tstop() called on Mac.lan at Sun Aug 10 17:20:30 2025
Module time:
	user time   =       4.90 seconds =       0.08 minutes
	system time =       2.20 seconds =       0.04 minutes
	total time  =          1 seconds =       0.02 minutes
Total time:
	user time   =      19.17 seconds =       0.32 minutes
	system time =       4.06 seconds =       0.07 minutes
	total time  =          2 seconds =       0.03 minutes

    Psi4 stopped on: Sunday, 10 August 2025 05:20PM
    Psi4 wall time for execution: 0:00:02.26

*** Psi4 exiting successfully. Buy a developer a beer!
