                               Psi4 1.9.1 release

  ==> Input File <==

--------------------------------------------------------------------------
molecule {
0 2
O           0.000000           0.000000           0.000000
N           0.000000           0.000000           1.171678
}

set {
basis              cc-pvtz
reference          uks
maxiter            500
DAMPING_PERCENTAGE 1
E_CONVERGENCE      1.0E-8
D_CONVERGENCE      1.0E-8
DIIS_MAX_VECS      400
MBIS_MAXITER       8000
guess              read
}

E, wfn = energy('b3lyp', restart_file='last_wfn', return_wfn=True)
properties('b3lyp','MBIS_CHARGES', wfn=wfn)
wfn.to_file('last_wfn')
--------------------------------------------------------------------------

    Molecular point group: c2v
  Charge       = 0
  Multiplicity = 2
  Basis Set: CC-PVTZ
    Blend: CC-PVTZ
  Basis Set: (CC-PVTZ AUX)
    Blend: CC-PVTZ-JKFIT
  @DF-UKS Final Energy:  -129.93929496896635
    Total Energy =                       -129.9392949689663510
 Dipole X            :          0.0000000            0.0000000            0.0000000
 Dipole Y            :          0.0000000            0.0000000            0.0000000
 Dipole Z            :         -0.0123029           -0.0044426           -0.0167455
 Magnitude           :                                                    0.0167455
    Molecular point group: c2v

    Geometry (in Angstrom), charge = 0, multiplicity = 2:

       Center              X                  Y                   Z               Mass
    ------------   -----------------  -----------------  -----------------  -----------------
         O            0.000000000000     0.000000000000    -0.546939794831    15.994914619570
         N            0.000000000000     0.000000000000     0.624738205169    14.003074004430

  Charge       = 0
  Multiplicity = 2
  Basis Set: CC-PVTZ
    Blend: CC-PVTZ
  Basis Set: (CC-PVTZ AUX)
    Blend: CC-PVTZ-JKFIT

    Orbital Energies [Eh]
    ---------------------

    Alpha Occupied:

       1A1   -19.270949     2A1   -14.463628     3A1    -1.234623
       4A1    -0.696413     1B1    -0.533742     1B2    -0.505816
       5A1    -0.488408     2B1    -0.228907

    Alpha Virtual:

       2B2    -0.117567     6A1     0.230085     3B1     0.411994
       3B2     0.418756     7A1     0.447200     8A1     0.493241
       9A1     0.561069     4B1     0.593838     4B2     0.600850
       1A2     0.923017    10A1     0.924837     5B1     1.111138
       5B2     1.111644    11A1     1.173582     2A2     1.511637
      12A1     1.512824    13A1     1.610855     6B1     1.982575
       6B2     1.984412    14A1     2.188259     7B1     2.801192
       7B2     2.818191    15A1     3.050551     8B1     3.509148
       8B2     3.517368     3A2     3.749951    16A1     3.751597
       9B1     3.778778     9B2     3.779346    17A1     3.925567
      10B1     4.038450    10B2     4.039180    18A1     4.225887
       4A2     4.347792    19A1     4.353708    11B1     4.708572
      11B2     4.712976    20A1     4.721947    12B1     5.045446
      12B2     5.045565     5A2     5.491985    21A1     5.493081
       6A2     6.145630    22A1     6.147661    23A1     6.174918
      13B1     6.332473    13B2     6.335739    14B2     6.857554
      14B1     6.859284    24A1     6.866385    25A1     7.133823
      26A1    12.741031

    Beta Occupied:

       1A1   -19.260524     2A1   -14.447728     3A1    -1.213359
       4A1    -0.659314     1B2    -0.496391     5A1    -0.465093
       1B1    -0.460396

    Beta Virtual:

       2B2    -0.101952     2B1    -0.060022     6A1     0.238168
       3B2     0.424806     3B1     0.447290     7A1     0.463499
       8A1     0.505585     9A1     0.570375     4B2     0.604459
       4B1     0.621816     1A2     0.949835    10A1     0.949927
       5B2     1.114223     5B1     1.141701    11A1     1.182653
      12A1     1.534133     2A2     1.534359    13A1     1.624809
       6B2     1.987443     6B1     2.010854    14A1     2.200801
       7B2     2.831510     7B1     2.871571    15A1     3.064318
       8B2     3.523665     8B1     3.554413    16A1     3.773880
       3A2     3.773917     9B2     3.823951     9B1     3.824025
      17A1     3.943527    10B2     4.044184    10B1     4.076042
      18A1     4.243513     4A2     4.414187    19A1     4.415198
      11B2     4.718198    20A1     4.738964    11B1     4.753356
      12B2     5.069553    12B1     5.069563     5A2     5.511146
      21A1     5.511254    22A1     6.180471     6A2     6.182832
      23A1     6.189837    13B2     6.339329    13B1     6.369049
      14B2     6.860397    24A1     6.881619    14B1     6.888545
      25A1     7.149457    26A1    12.759882

    Final Occupation by Irrep:
             A1    A2    B1    B2
    DOCC [     5,    0,    1,    1 ]
    SOCC [     0,    0,    1,    0 ]
    NA   [     5,    0,    2,    1 ]
    NB   [     5,    0,    1,    1 ]

  @DF-UKS Final Energy:  -129.93929496966774

   => Energetics <=

    Nuclear Repulsion Energy =             25.2918667052893369
    One-Electron Energy =                -227.1197844901031431
    Two-Electron Energy =                  84.2931366480914335
    DFT Exchange-Correlation Energy =     -12.4045138329453906
    Empirical Dispersion Energy =           0.0000000000000000
    VV10 Nonlocal Energy =                  0.0000000000000000
    Total Energy =                       -129.9392949696677420

  UHF NO Occupations:
  HONO-2 :    5 A1 1.9995123
  HONO-1 :    1 B1 1.9991472
  HONO-0 :    2 B1 1.0000000
  LUNO+0 :    3 B1 0.0008528
  LUNO+1 :    6 A1 0.0004877
  LUNO+2 :    2 B2 0.0001574
  LUNO+3 :    7 A1 0.0000932

Computation Completed

Properties will be evaluated at   0.000000,   0.000000,   0.000000 [a0]

Properties computed using the B3LYP density matrix

 Multipole Moments:

 ------------------------------------------------------------------------------------
     Multipole            Electronic (a.u.)      Nuclear  (a.u.)        Total (a.u.)
 ------------------------------------------------------------------------------------

 L = 1.  Multiply by 2.5417464519 to convert [e a0] to [Debye]
 Dipole X            :          0.0000000            0.0000000            0.0000000
 Dipole Y            :          0.0000000            0.0000000            0.0000000
 Dipole Z            :         -0.0123028           -0.0044426           -0.0167454
 Magnitude           :                                                    0.0167454

 L = 2.  Multiply by 1.3450342976 to convert [e a0^2] to [Debye ang]
 Quadrupole XX       :         -7.9452362            0.0000000           -7.9452362
 Quadrupole XY       :          0.0000000            0.0000000            0.0000000
 Quadrupole XZ       :          0.0000000            0.0000000            0.0000000
 Quadrupole YY       :         -7.1387354            0.0000000           -7.1387354
 Quadrupole YZ       :          0.0000000            0.0000000            0.0000000
 Quadrupole ZZ       :        -26.6843595           18.3025282           -8.3818313
 Traceless XX        :          5.9775408           -6.1008427           -0.1233019
 Traceless YY        :          6.7840416           -6.1008427            0.6831989
 Traceless ZZ        :        -12.7615825           12.2016855           -0.5598970

 ------------------------------------------------------------------------------------
  ==> Computing MBIS Charges <==

  Electron Count from Grid (Expected Number): 15.00000 (15.00000)
  Difference:  0.00000

  MBIS Charges: (a.u.)
   Center  Symbol  Z      Pop.       Charge
      1       O    8    8.046243   -0.046243
      2       N    7    6.953758    0.046242

  MBIS Dipoles: [e a0]
   Center  Symbol  Z        X           Y           Z
      1       O    8    0.000000    0.000000    0.042396
      2       N    7   -0.000000    0.000000   -0.161529

  MBIS Quadrupoles: [e a0^2]
   Center  Symbol  Z      XX        XY        XZ        YY        YZ        ZZ
      1       O    8   -3.7595   -0.0000   -0.0000   -3.5043    0.0000   -3.7690
      2       N    7   -4.1857    0.0000    0.0000   -3.6344    0.0000   -4.1589

  MBIS Octupoles: [e a0^3]
   Center  Symbol  Z      XXX       XXY       XXZ       XYY       XYZ       XZZ       YYY       YYZ       YZZ       ZZZ
      1       O    8   -0.0000   -0.0000    0.1042    0.0000    0.0000   -0.0000   -0.0000    0.0469   -0.0000   -0.0393
      2       N    7    0.0000   -0.0000   -0.2614    0.0000    0.0000    0.0000    0.0000   -0.0296    0.0000    0.0035

  MBIS Radial Moments:
   Center  Symbol  Z      [a0^2]      [a0^3]      [a0^4]
      1       O    8   11.032807   20.367555   45.127580
      2       N    7   11.979012   25.092812   62.693579

  MBIS Valence Widths: [a0]
   Center  Symbol  Z     Width
      1       O    8    0.379941
      2       N    7    0.436500

*** tstop() called on Mac.lan at Sun Aug 10 17:19:31 2025
Module time:
	user time   =       3.69 seconds =       0.06 minutes
	system time =       2.00 seconds =       0.03 minutes
	total time  =          1 seconds =       0.02 minutes
Total time:
	user time   =      19.05 seconds =       0.32 minutes
	system time =       4.31 seconds =       0.07 minutes
	total time  =          3 seconds =       0.05 minutes

    Psi4 stopped on: Sunday, 10 August 2025 05:19PM
    Psi4 wall time for execution: 0:00:02.27

*** Psi4 exiting successfully. Buy a developer a beer!
