                               Psi4 1.9.1 release

  ==> Input File <==

--------------------------------------------------------------------------
molecule {
0 3
O           0.000000           0.000000           0.000000
O           0.000000           0.000000           0.723496
}

set {
basis              cc-pvtz
reference          uks
maxiter            500
DAMPING_PERCENTAGE 1
E_CONVERGENCE      1.0E-8
D_CONVERGENCE      1.0E-8
DIIS_MAX_VECS      400
MBIS_MAXITER       8000
guess              read
}

E, wfn = energy('b3lyp', restart_file='last_wfn', return_wfn=True)
properties('b3lyp','MBIS_CHARGES', wfn=wfn)
wfn.to_file('last_wfn')
--------------------------------------------------------------------------

    Molecular point group: d2h
  Charge       = 0
  Multiplicity = 3
  Basis Set: CC-PVTZ
    Blend: CC-PVTZ
  Basis Set: (CC-PVTZ AUX)
    Blend: CC-PVTZ-JKFIT
  @DF-UKS Final Energy:  -149.06365388366046
    Total Energy =                       -149.0636538836604927
 Dipole X            :          0.0000000            0.0000000            0.0000000
 Dipole Y            :          0.0000000            0.0000000            0.0000000
 Dipole Z            :          0.0000000            0.0000000            0.0000000
 Magnitude           :                                                    0.0000000
    Molecular point group: d2h

    Geometry (in Angstrom), charge = 0, multiplicity = 3:

       Center              X                  Y                   Z               Mass
    ------------   -----------------  -----------------  -----------------  -----------------
         O            0.000000000000     0.000000000000    -0.361748000000    15.994914619570
         O            0.000000000000     0.000000000000     0.361748000000    15.994914619570

  Charge       = 0
  Multiplicity = 3
  Basis Set: CC-PVTZ
    Blend: CC-PVTZ
  Basis Set: (CC-PVTZ AUX)
    Blend: CC-PVTZ-JKFIT

    Orbital Energies [Eh]
    ---------------------

    Alpha Occupied:

       1Ag   -19.291333     1B1u  -19.261653     2Ag    -1.846616
       1B3u   -0.911885     1B2u   -0.911885     2B1u   -0.703337
       3Ag    -0.679759     1B3g   -0.030634     1B2g   -0.030634

    Alpha Virtual:

       3B1u    0.336523     2B2u    0.386865     2B3u    0.386865
       4Ag     0.462634     5Ag     0.654320     2B3g    0.666172
       2B2g    0.666172     6Ag     1.086554     1B1g    1.086555
       4B1u    1.157963     5B1u    1.567764     3B2u    1.683678
       3B3u    1.683678     1Au     1.814770     6B1u    1.814770
       7Ag     1.985668     3B2g    2.238568     3B3g    2.238568
       4B2u    3.208732     4B3u    3.208732     7B1u    3.447258
       8Ag     4.088051     4B2g    4.142984     4B3g    4.142984
       5B2u    4.471726     5B3u    4.471726     8B1u    4.517103
       9Ag     4.666754     2B1g    4.666754     6B2u    5.262695
       6B3u    5.262695     5B3g    5.588827     5B2g    5.588827
      10Ag     5.627816     6B2g    5.762283     6B3g    5.762283
       9B1u    5.956964     2Au     5.956965    11Ag     5.996979
       3B1g    5.996980    12Ag     6.094741    10B1u    6.804959
       7B2u    7.170008     7B3u    7.170008    11B1u    7.434393
       3Au     7.434393    12B1u    9.220436     7B2g   10.016991
       7B3g   10.016991    13Ag    11.324843    13B1u   33.733069

    Beta Occupied:

       1Ag   -19.268027     1B1u  -19.237912     2Ag    -1.819576
       1B2u   -0.835893     1B3u   -0.835893     3Ag    -0.625357
       2B1u   -0.621505

    Beta Virtual:

       1B3g    0.143580     1B2g    0.143580     3B1u    0.351643
       2B2u    0.411285     2B3u    0.411285     4Ag     0.473136
       5Ag     0.680960     2B3g    0.726913     2B2g    0.726913
       6Ag     1.123985     1B1g    1.123985     4B1u    1.196678
       5B1u    1.610045     3B2u    1.730292     3B3u    1.730292
       1Au     1.885977     6B1u    1.885977     7Ag     2.000494
       3B2g    2.284188     3B3g    2.284188     4B2u    3.257696
       4B3u    3.257696     7B1u    3.479164     8Ag     4.112996
       4B2g    4.207106     4B3g    4.207106     5B2u    4.519224
       5B3u    4.519224     8B1u    4.572443     9Ag     4.698278
       2B1g    4.698279     6B2u    5.309315     6B3u    5.309315
      10Ag     5.659072     5B3g    5.661198     5B2g    5.661198
       6B2g    5.806124     6B3g    5.806124     9B1u    6.042639
       2Au     6.042640    11Ag     6.079832     3B1g    6.079833
      12Ag     6.121819    10B1u    6.838498     7B2u    7.208797
       7B3u    7.208797    11B1u    7.494634     3Au     7.494634
      12B1u    9.247275     7B2g   10.068424     7B3g   10.068424
      13Ag    11.369165    13B1u   33.761940

    Final Occupation by Irrep:
             Ag   B1g   B2g   B3g    Au   B1u   B2u   B3u
    DOCC [     3,    0,    0,    0,    0,    2,    1,    1 ]
    SOCC [     0,    0,    1,    1,    0,    0,    0,    0 ]
    NA   [     3,    0,    1,    1,    0,    2,    1,    1 ]
    NB   [     3,    0,    0,    0,    0,    2,    1,    1 ]

  @DF-UKS Final Energy:  -149.06365388376258

   => Energetics <=

    Nuclear Repulsion Energy =             46.8106824127293066
    One-Electron Energy =                -294.4897258468348582
    Two-Electron Energy =                 113.0590610123054347
    DFT Exchange-Correlation Energy =     -14.4436714619624542
    Empirical Dispersion Energy =           0.0000000000000000
    VV10 Nonlocal Energy =                  0.0000000000000000
    Total Energy =                       -149.0636538837625551

  UHF NO Occupations:
  HONO-2 :    2B1u 1.9996753
  HONO-1 :    1B3g 1.0000000
  HONO-0 :    1B2g 1.0000000
  LUNO+0 :    3B1u 0.0003247
  LUNO+1 :    2B3u 0.0002180
  LUNO+2 :    2B2u 0.0002180
  LUNO+3 :    4 Ag 0.0001164

Computation Completed

Properties will be evaluated at   0.000000,   0.000000,   0.000000 [a0]

Properties computed using the B3LYP density matrix

 Multipole Moments:

 ------------------------------------------------------------------------------------
     Multipole            Electronic (a.u.)      Nuclear  (a.u.)        Total (a.u.)
 ------------------------------------------------------------------------------------

 L = 1.  Multiply by 2.5417464519 to convert [e a0] to [Debye]
 Dipole X            :          0.0000000            0.0000000            0.0000000
 Dipole Y            :          0.0000000            0.0000000            0.0000000
 Dipole Z            :          0.0000000            0.0000000            0.0000000
 Magnitude           :                                                    0.0000000

 L = 2.  Multiply by 1.3450342976 to convert [e a0^2] to [Debye ang]
 Quadrupole XX       :         -6.7201280            0.0000000           -6.7201280
 Quadrupole XY       :          0.0000000            0.0000000            0.0000000
 Quadrupole XZ       :          0.0000000            0.0000000            0.0000000
 Quadrupole YY       :         -6.7201280            0.0000000           -6.7201280
 Quadrupole YZ       :          0.0000000            0.0000000            0.0000000
 Quadrupole ZZ       :        -15.8360223            7.4770450           -8.3589773
 Traceless XX        :          3.0386315           -2.4923483            0.5462831
 Traceless YY        :          3.0386315           -2.4923483            0.5462831
 Traceless ZZ        :         -6.0772629            4.9846967           -1.0925662

 ------------------------------------------------------------------------------------
  ==> Computing MBIS Charges <==

  Electron Count from Grid (Expected Number): 16.00000 (16.00000)
  Difference:  0.00000

  MBIS Charges: (a.u.)
   Center  Symbol  Z      Pop.       Charge
      1       O    8    8.000001   -0.000001
      2       O    8    8.000001   -0.000001

  MBIS Dipoles: [e a0]
   Center  Symbol  Z        X           Y           Z
      1       O    8    0.000000   -0.000000    0.261687
      2       O    8   -0.000000    0.000000   -0.261687

  MBIS Quadrupoles: [e a0^2]
   Center  Symbol  Z      XX        XY        XZ        YY        YZ        ZZ
      1       O    8   -3.3601   -0.0000   -0.0000   -3.3601    0.0000   -3.8217
      2       O    8   -3.3601    0.0000    0.0000   -3.3601    0.0000   -3.8217

  MBIS Octupoles: [e a0^3]
   Center  Symbol  Z      XXX       XXY       XXZ       XYY       XYZ       XZZ       YYY       YYZ       YZZ       ZZZ
      1       O    8   -0.0000   -0.0000    0.5121   -0.0000    0.0000    0.0000   -0.0000    0.5121    0.0000    0.3840
      2       O    8   -0.0000   -0.0000   -0.5121   -0.0000    0.0000   -0.0000    0.0000   -0.5121    0.0000   -0.3840

  MBIS Radial Moments:
   Center  Symbol  Z      [a0^2]      [a0^3]      [a0^4]
      1       O    8   10.541836   19.732445   45.020240
      2       O    8   10.541836   19.732445   45.020240

  MBIS Valence Widths: [a0]
   Center  Symbol  Z     Width
      1       O    8    0.368853
      2       O    8    0.368853

*** tstop() called on Mac.lan at Sun Aug 10 17:01:33 2025
Module time:
	user time   =       3.50 seconds =       0.06 minutes
	system time =       3.07 seconds =       0.05 minutes
	total time  =          1 seconds =       0.02 minutes
Total time:
	user time   =      17.08 seconds =       0.28 minutes
	system time =       5.25 seconds =       0.09 minutes
	total time  =          2 seconds =       0.03 minutes

    Psi4 stopped on: Sunday, 10 August 2025 05:01PM
    Psi4 wall time for execution: 0:00:02.19

*** Psi4 exiting successfully. Buy a developer a beer!
