                               Psi4 1.9.1 release

  ==> Input File <==

--------------------------------------------------------------------------
molecule {
0 2
C           0.000000           0.000000           0.000000
H           0.000000           0.000000           0.942532
}

set {
basis              cc-pvtz
reference          uks
maxiter            500
DAMPING_PERCENTAGE 1
E_CONVERGENCE      1.0E-8
D_CONVERGENCE      1.0E-8
DIIS_MAX_VECS      400
MBIS_MAXITER       8000
guess              read
}

E, wfn = energy('b3lyp', restart_file='last_wfn', return_wfn=True)
properties('b3lyp','MBIS_CHARGES', wfn=wfn)
wfn.to_file('last_wfn')
--------------------------------------------------------------------------

    Molecular point group: c2v
  Charge       = 0
  Multiplicity = 2
  Basis Set: CC-PVTZ
    Blend: CC-PVTZ
  Basis Set: (CC-PVTZ AUX)
    Blend: CC-PVTZ-JKFIT
  @DF-UKS Final Energy:   -38.47236600037506
    Total Energy =                        -38.4723660003750609
 Dipole X            :          0.0000000            0.0000000            0.0000000
 Dipole Y            :          0.0000000            0.0000000            0.0000000
 Dipole Z            :         -0.1177845            0.8151355            0.6973510
 Magnitude           :                                                    0.6973510
    Molecular point group: c2v

    Geometry (in Angstrom), charge = 0, multiplicity = 2:

       Center              X                  Y                   Z               Mass
    ------------   -----------------  -----------------  -----------------  -----------------
         C            0.000000000000     0.000000000000    -0.073025839518    12.000000000000
         H            0.000000000000     0.000000000000     0.869506160482     1.007825032230

  Charge       = 0
  Multiplicity = 2
  Basis Set: CC-PVTZ
    Blend: CC-PVTZ
  Basis Set: (CC-PVTZ AUX)
    Blend: CC-PVTZ-JKFIT

    Orbital Energies [Eh]
    ---------------------

    Alpha Occupied:

       1A1   -10.259869     2A1    -0.697746     3A1    -0.324238
       1B1    -0.258924

    Alpha Virtual:

       1B2    -0.147578     4A1     0.071644     5A1     0.286414
       2B1     0.292539     2B2     0.311872     6A1     0.357435
       7A1     0.513069     3B1     0.593872     3B2     0.598183
       1A2     0.654755     8A1     0.660583     9A1     0.983751
       4B1     1.064766     4B2     1.064922    10A1     1.645050
      11A1     1.930520     5B1     1.940828     5B2     1.966144
      12A1     2.160591     2A2     2.534389    13A1     2.538071
       6B1     2.643085     6B2     2.645287     7B1     2.666808
       7B2     2.674925     3A2     2.901156    14A1     2.911430
      15A1     2.994065     8B1     3.038315     8B2     3.041985
      16A1     3.539344     4A2     3.748884    17A1     3.751330
       9B2     3.895659     9B1     3.897813    18A1     5.045618
      10B1     5.136772    10B2     5.139390    19A1     5.278460
      20A1    10.309332

    Beta Occupied:

       1A1   -10.245409     2A1    -0.658095     3A1    -0.300826

    Beta Virtual:

       1B2    -0.131511     1B1    -0.085895     4A1     0.074946
       5A1     0.293311     2B2     0.319185     2B1     0.347163
       6A1     0.371878     7A1     0.526189     3B2     0.600545
       3B1     0.626357     8A1     0.698255     1A2     0.698284
       9A1     0.995497     4B2     1.066267     4B1     1.085359
      10A1     1.661754    11A1     1.941964     5B2     1.978103
       5B1     2.022001    12A1     2.182198     2A2     2.566123
      13A1     2.566586     6B2     2.677546     6B1     2.699881
       7B2     2.701597     7B1     2.715247    14A1     2.965773
       3A2     2.975308    15A1     3.022732     8B2     3.045566
       8B1     3.080370    16A1     3.551351     4A2     3.766090
      17A1     3.766912     9B2     3.893860     9B1     3.908517
      18A1     5.054743    10B2     5.141297    10B1     5.168775
      19A1     5.286128    20A1    10.324320

    Final Occupation by Irrep:
             A1    A2    B1    B2
    DOCC [     3,    0,    0,    0 ]
    SOCC [     0,    0,    1,    0 ]
    NA   [     3,    0,    1,    0 ]
    NB   [     3,    0,    0,    0 ]

  @DF-UKS Final Energy:   -38.47236600024853

   => Energetics <=

    Nuclear Repulsion Energy =              3.3686530155156533
    One-Electron Energy =                 -57.6114593017385346
    Two-Electron Energy =                  20.3771839489457918
    DFT Exchange-Correlation Energy =      -4.6067436629714420
    Empirical Dispersion Energy =           0.0000000000000000
    VV10 Nonlocal Energy =                  0.0000000000000000
    Total Energy =                        -38.4723660002485275

  UHF NO Occupations:
  HONO-2 :    2 A1 1.9998879
  HONO-1 :    3 A1 1.9987453
  HONO-0 :    1 B1 1.0000000
  LUNO+0 :    4 A1 0.0012547
  LUNO+1 :    5 A1 0.0001121
  LUNO+2 :    6 A1 0.0000007
  LUNO+3 :    7 A1 0.0000000

Computation Completed

Properties will be evaluated at   0.000000,   0.000000,   0.000000 [a0]

Properties computed using the B3LYP density matrix

 Multipole Moments:

 ------------------------------------------------------------------------------------
     Multipole            Electronic (a.u.)      Nuclear  (a.u.)        Total (a.u.)
 ------------------------------------------------------------------------------------

 L = 1.  Multiply by 2.5417464519 to convert [e a0] to [Debye]
 Dipole X            :          0.0000000            0.0000000            0.0000000
 Dipole Y            :          0.0000000            0.0000000            0.0000000
 Dipole Z            :         -0.1177845            0.8151355            0.6973510
 Magnitude           :                                                    0.6973510

 L = 2.  Multiply by 1.3450342976 to convert [e a0^2] to [Debye ang]
 Quadrupole XX       :         -5.5717975            0.0000000           -5.5717975
 Quadrupole XY       :          0.0000000            0.0000000            0.0000000
 Quadrupole XZ       :          0.0000000            0.0000000            0.0000000
 Quadrupole YY       :         -4.0712806            0.0000000           -4.0712806
 Quadrupole YZ       :          0.0000000            0.0000000            0.0000000
 Quadrupole ZZ       :         -8.2941258            2.8141334           -5.4799924
 Traceless XX        :          0.4072705           -0.9380445           -0.5307740
 Traceless YY        :          1.9077873           -0.9380445            0.9697429
 Traceless ZZ        :         -2.3150578            1.8760889           -0.4389689

 ------------------------------------------------------------------------------------
  ==> Computing MBIS Charges <==

  Electron Count from Grid (Expected Number):  7.00000 ( 7.00000)
  Difference:  0.00000

  MBIS Charges: (a.u.)
   Center  Symbol  Z      Pop.       Charge
      1       C    6    6.131680   -0.131680
      2       H    1    0.868320    0.131680

  MBIS Dipoles: [e a0]
   Center  Symbol  Z        X           Y           Z
      1       C    6   -0.000000   -0.000000    0.423611
      2       H    1    0.000000    0.000000    0.039201

  MBIS Quadrupoles: [e a0^2]
   Center  Symbol  Z      XX        XY        XZ        YY        YZ        ZZ
      1       C    6   -5.1628    0.0000    0.0000   -3.7194   -0.0000   -5.4474
      2       H    1   -0.4090    0.0000    0.0000   -0.3519   -0.0000   -0.3976

  MBIS Octupoles: [e a0^3]
   Center  Symbol  Z      XXX       XXY       XXZ       XYY       XYZ       XZZ       YYY       YYZ       YZZ       ZZZ
      1       C    6   -0.0000    0.0000    0.6439    0.0000   -0.0000    0.0000    0.0000    0.7227   -0.0000    1.3920
      2       H    1   -0.0000    0.0000    0.0085   -0.0000   -0.0000    0.0000    0.0000   -0.0127   -0.0000   -0.0073

  MBIS Radial Moments:
   Center  Symbol  Z      [a0^2]      [a0^3]      [a0^4]
      1       C    6   14.329568   35.703189   106.010262
      2       H    1    1.158422    1.900603    3.750929

  MBIS Valence Widths: [a0]
   Center  Symbol  Z     Width
      1       C    6    0.521421
      2       H    1    0.337077

*** tstop() called on Mac.lan at Sun Aug 10 17:08:37 2025
Module time:
	user time   =       3.06 seconds =       0.05 minutes
	system time =       1.60 seconds =       0.03 minutes
	total time  =          1 seconds =       0.02 minutes
Total time:
	user time   =      11.86 seconds =       0.20 minutes
	system time =       3.79 seconds =       0.06 minutes
	total time  =          2 seconds =       0.03 minutes

    Psi4 stopped on: Sunday, 10 August 2025 05:08PM
    Psi4 wall time for execution: 0:00:01.53

*** Psi4 exiting successfully. Buy a developer a beer!
