                               Psi4 1.9.1 release

  ==> Input File <==

--------------------------------------------------------------------------
molecule {
0 2
N           0.000000           0.000000           0.000000
C           0.000000           0.000000           1.146172
}

set {
basis              cc-pvtz
reference          uks
maxiter            500
DAMPING_PERCENTAGE 1
E_CONVERGENCE      1.0E-8
D_CONVERGENCE      1.0E-8
DIIS_MAX_VECS      400
MBIS_MAXITER       8000
guess              read
}

E, wfn = energy('b3lyp', restart_file='last_wfn', return_wfn=True)
properties('b3lyp','MBIS_CHARGES', wfn=wfn)
wfn.to_file('last_wfn')
--------------------------------------------------------------------------

    Molecular point group: c2v
  Charge       = 0
  Multiplicity = 2
  Basis Set: CC-PVTZ
    Blend: CC-PVTZ
  Basis Set: (CC-PVTZ AUX)
    Blend: CC-PVTZ-JKFIT
  @DF-UKS Final Energy:   -92.74519291640416
    Total Energy =                        -92.7451929164041644
 Dipole X            :          0.0000000            0.0000000            0.0000000
 Dipole Y            :          0.0000000            0.0000000            0.0000000
 Dipole Z            :          0.5301490            0.0015363            0.5316853
 Magnitude           :                                                    0.5316853
    Molecular point group: c2v

    Geometry (in Angstrom), charge = 0, multiplicity = 2:

       Center              X                  Y                   Z               Mass
    ------------   -----------------  -----------------  -----------------  -----------------
         N            0.000000000000     0.000000000000    -0.528939924474    14.003074004430
         C            0.000000000000     0.000000000000     0.617232075526    12.000000000000

  Charge       = 0
  Multiplicity = 2
  Basis Set: CC-PVTZ
    Blend: CC-PVTZ
  Basis Set: (CC-PVTZ AUX)
    Blend: CC-PVTZ-JKFIT

    Orbital Energies [Eh]
    ---------------------

    Alpha Occupied:

       1A1   -14.383245     2A1   -10.290994     3A1    -0.972315
       4A1    -0.500904     5A1    -0.412102     1B1    -0.399132
       1B2    -0.399132

    Alpha Virtual:

       2B1    -0.010878     2B2    -0.010878     6A1     0.166416
       7A1     0.265703     3B1     0.280457     3B2     0.280457
       8A1     0.438348     4B2     0.515613     4B1     0.515613
       9A1     0.618261    10A1     0.618570     1A2     0.618570
       5B2     0.827731     5B1     0.827731    11A1     0.885131
       2A2     1.163830    12A1     1.163830    13A1     1.293900
       6B2     1.513851     6B1     1.513851    14A1     1.755957
       7B2     1.955498     7B1     1.955498    15A1     2.198933
       8B1     2.614591     8B2     2.614591    16A1     2.713242
       3A2     2.713242    17A1     2.731140     9B2     2.793278
       9B1     2.793278    18A1     2.910440     4A2     2.910441
      10B2     2.917416    10B1     2.917416    19A1     3.108607
      11B2     3.409908    11B1     3.409908    12B2     3.930085
      12B1     3.930085    20A1     3.932347     5A2     4.413078
      21A1     4.413080     6A2     4.551708    22A1     4.551712
      13B2     4.805524    13B1     4.805524    23A1     4.984130
      24A1     5.333590    14B2     5.575350    14B1     5.575350
      25A1     6.043855    26A1    12.830040

    Beta Occupied:

       1A1   -14.378813     2A1   -10.274920     3A1    -0.949883
       4A1    -0.434718     1B1    -0.390388     1B2    -0.390388

    Beta Virtual:

       5A1    -0.252892     2B1     0.011203     2B2     0.011203
       6A1     0.173528     3B1     0.290240     3B2     0.290240
       7A1     0.306018     8A1     0.449590     4B2     0.517456
       4B1     0.517456     9A1     0.629143     1A2     0.629143
      10A1     0.664040     5B2     0.857857     5B1     0.857857
      11A1     0.896372     2A2     1.166107    12A1     1.166107
      13A1     1.331964     6B2     1.530017     6B1     1.530017
      14A1     1.782437     7B2     1.970655     7B1     1.970655
      15A1     2.249417     8B1     2.631480     8B2     2.631480
      16A1     2.728489     3A2     2.728489    17A1     2.771904
       9B2     2.833597     9B1     2.833597    10B2     2.951682
      10B1     2.951682    18A1     2.953643     4A2     2.953644
      19A1     3.189054    11B2     3.445644    11B1     3.445644
      12B2     3.925385    12B1     3.925385    20A1     3.966019
       5A2     4.411545    21A1     4.411547     6A2     4.559559
      22A1     4.559562    13B2     4.827655    13B1     4.827655
      23A1     5.020474    24A1     5.362130    14B2     5.601179
      14B1     5.601179    25A1     6.058325    26A1    12.850857

    Final Occupation by Irrep:
             A1    A2    B1    B2
    DOCC [     4,    0,    1,    1 ]
    SOCC [     1,    0,    0,    0 ]
    NA   [     5,    0,    1,    1 ]
    NB   [     4,    0,    1,    1 ]

  @DF-UKS Final Energy:   -92.74519291527483

   => Energetics <=

    Nuclear Repulsion Energy =             19.3910188419713627
    One-Electron Energy =                -163.0021451861879882
    Two-Electron Energy =                  60.7169364503585172
    DFT Exchange-Correlation Energy =      -9.8510030214167266
    Empirical Dispersion Energy =           0.0000000000000000
    VV10 Nonlocal Energy =                  0.0000000000000000
    Total Energy =                        -92.7451929152748278

  UHF NO Occupations:
  HONO-2 :    1 B1 1.9986289
  HONO-1 :    1 B2 1.9986289
  HONO-0 :    5 A1 1.0000000
  LUNO+0 :    2 B1 0.0013711
  LUNO+1 :    2 B2 0.0013711
  LUNO+2 :    6 A1 0.0010587
  LUNO+3 :    7 A1 0.0000914

Computation Completed

Properties will be evaluated at   0.000000,   0.000000,   0.000000 [a0]

Properties computed using the B3LYP density matrix

 Multipole Moments:

 ------------------------------------------------------------------------------------
     Multipole            Electronic (a.u.)      Nuclear  (a.u.)        Total (a.u.)
 ------------------------------------------------------------------------------------

 L = 1.  Multiply by 2.5417464519 to convert [e a0] to [Debye]
 Dipole X            :          0.0000000            0.0000000            0.0000000
 Dipole Y            :          0.0000000            0.0000000            0.0000000
 Dipole Z            :          0.5301491            0.0015363            0.5316854
 Magnitude           :                                                    0.5316854

 L = 2.  Multiply by 1.3450342976 to convert [e a0^2] to [Debye ang]
 Quadrupole XX       :         -8.0899438            0.0000000           -8.0899438
 Quadrupole XY       :          0.0000000            0.0000000            0.0000000
 Quadrupole XZ       :          0.0000000            0.0000000            0.0000000
 Quadrupole YY       :         -8.0899438            0.0000000           -8.0899438
 Quadrupole YZ       :          0.0000000            0.0000000            0.0000000
 Quadrupole ZZ       :        -22.9164294           15.1566516           -7.7597778
 Traceless XX        :          4.9421619           -5.0522172           -0.1100553
 Traceless YY        :          4.9421619           -5.0522172           -0.1100553
 Traceless ZZ        :         -9.8843237           10.1044344            0.2201107

 ------------------------------------------------------------------------------------
  ==> Computing MBIS Charges <==

  Electron Count from Grid (Expected Number): 13.00000 (13.00000)
  Difference: -0.00000

  MBIS Charges: (a.u.)
   Center  Symbol  Z      Pop.       Charge
      1       N    7    7.260126   -0.260126
      2       C    6    5.739874    0.260126

  MBIS Dipoles: [e a0]
   Center  Symbol  Z        X           Y           Z
      1       N    7   -0.000000   -0.000000   -0.171945
      2       C    6   -0.000000    0.000000    0.140211

  MBIS Quadrupoles: [e a0^2]
   Center  Symbol  Z      XX        XY        XZ        YY        YZ        ZZ
      1       N    7   -4.2433   -0.0000   -0.0000   -4.2433    0.0000   -4.5256
      2       C    6   -3.8466    0.0000    0.0000   -3.8466    0.0000   -3.9990

  MBIS Octupoles: [e a0^3]
   Center  Symbol  Z      XXX       XXY       XXZ       XYY       XYZ       XZZ       YYY       YYZ       YZZ       ZZZ
      1       N    7   -0.0000   -0.0000   -0.2150   -0.0000    0.0000   -0.0000   -0.0000   -0.2150   -0.0000   -0.3625
      2       C    6   -0.0000   -0.0000    0.1175   -0.0000    0.0000    0.0000    0.0000    0.1175    0.0000    0.1880

  MBIS Radial Moments:
   Center  Symbol  Z      [a0^2]      [a0^3]      [a0^4]
      1       N    7   13.012251   27.609416   69.991038
      2       C    6   11.692239   27.360816   76.451850

  MBIS Valence Widths: [a0]
   Center  Symbol  Z     Width
      1       N    7    0.442449
      2       C    6    0.492284

*** tstop() called on Mac.lan at Sun Aug 10 17:12:42 2025
Module time:
	user time   =       4.25 seconds =       0.07 minutes
	system time =       2.51 seconds =       0.04 minutes
	total time  =          0 seconds =       0.00 minutes
Total time:
	user time   =      20.93 seconds =       0.35 minutes
	system time =       4.83 seconds =       0.08 minutes
	total time  =          2 seconds =       0.03 minutes

    Psi4 stopped on: Sunday, 10 August 2025 05:12PM
    Psi4 wall time for execution: 0:00:02.49

*** Psi4 exiting successfully. Buy a developer a beer!
