                               Psi4 1.9.1 release

  ==> Input File <==

--------------------------------------------------------------------------
molecule {
0 2
C           0.000000           0.000000           0.000000
H           0.000000           0.000000           1.396599
}

set {
basis              cc-pvtz
reference          uks
maxiter            500
DAMPING_PERCENTAGE 1
E_CONVERGENCE      1.0E-8
D_CONVERGENCE      1.0E-8
DIIS_MAX_VECS      400
MBIS_MAXITER       8000
guess              read
}

E, wfn = energy('b3lyp', restart_file='last_wfn', return_wfn=True)
properties('b3lyp','MBIS_CHARGES', wfn=wfn)
wfn.to_file('last_wfn')
--------------------------------------------------------------------------

    Molecular point group: c2v
  Charge       = 0
  Multiplicity = 2
  Basis Set: CC-PVTZ
    Blend: CC-PVTZ
  Basis Set: (CC-PVTZ AUX)
    Blend: CC-PVTZ-JKFIT
  @DF-UKS Final Energy:   -38.47337031942286
    Total Energy =                        -38.4733703194228553
 Dipole X            :          0.0000000            0.0000000            0.0000000
 Dipole Y            :          0.0000000            0.0000000            0.0000000
 Dipole Z            :         -0.8523857            1.2078289            0.3554432
 Magnitude           :                                                    0.3554432
    Molecular point group: c2v

    Geometry (in Angstrom), charge = 0, multiplicity = 2:

       Center              X                  Y                   Z               Mass
    ------------   -----------------  -----------------  -----------------  -----------------
         C            0.000000000000     0.000000000000    -0.108206208855    12.000000000000
         H            0.000000000000     0.000000000000     1.288392791145     1.007825032230

  Charge       = 0
  Multiplicity = 2
  Basis Set: CC-PVTZ
    Blend: CC-PVTZ
  Basis Set: (CC-PVTZ AUX)
    Blend: CC-PVTZ-JKFIT

    Orbital Energies [Eh]
    ---------------------

    Alpha Occupied:

       1A1   -10.310566     2A1    -0.608301     3A1    -0.319175
       1B1    -0.265548

    Alpha Virtual:

       1B2    -0.152093     4A1     0.012520     5A1     0.264816
       2B1     0.287023     2B2     0.306584     6A1     0.318229
       7A1     0.449802     3B1     0.544469     3B2     0.546759
       1A2     0.653237     8A1     0.658967     9A1     0.885669
       4B1     0.955345     4B2     0.956378    10A1     1.203401
       5B1     1.900070     5B2     1.926717    11A1     2.116117
      12A1     2.417062     6B1     2.549179     6B2     2.553159
       2A2     2.565490    13A1     2.569743     7B1     2.635679
       7B2     2.638238    14A1     2.678944     3A2     2.883993
      15A1     2.896764     8B1     2.998700     8B2     3.013672
      16A1     3.108099     4A2     3.342862    17A1     3.343924
       9B2     3.682882     9B1     3.684927    18A1     3.731330
      10B2     4.115699    10B1     4.116291    19A1     4.275643
      20A1     6.048001

    Beta Occupied:

       1A1   -10.295248     2A1    -0.559763     3A1    -0.304559

    Beta Virtual:

       1B2    -0.135803     1B1    -0.088900     4A1     0.021154
       5A1     0.267193     2B2     0.313982     6A1     0.326194
       2B1     0.342924     7A1     0.470559     3B2     0.547074
       3B1     0.565903     8A1     0.696363     1A2     0.696778
       9A1     0.898614     4B2     0.957553     4B1     0.977257
      10A1     1.207819     5B2     1.937551     5B1     1.981157
      11A1     2.128631    12A1     2.418587     6B2     2.556607
       6B1     2.587410    13A1     2.597490     2A2     2.598359
       7B2     2.694494     7B1     2.695141    14A1     2.698882
      15A1     2.962083     3A2     2.962287     8B2     3.019753
       8B1     3.062770    16A1     3.131290     4A2     3.347124
      17A1     3.347480     9B2     3.676638     9B1     3.683314
      18A1     3.744798    10B2     4.113927    10B1     4.130475
      19A1     4.275527    20A1     6.062437

    Final Occupation by Irrep:
             A1    A2    B1    B2
    DOCC [     3,    0,    0,    0 ]
    SOCC [     0,    0,    1,    0 ]
    NA   [     3,    0,    1,    0 ]
    NB   [     3,    0,    0,    0 ]

  @DF-UKS Final Energy:   -38.47337031869610

   => Energetics <=

    Nuclear Repulsion Energy =              2.2734251306352076
    One-Electron Energy =                 -55.5898608382923385
    Two-Electron Energy =                  19.3290180035628332
    DFT Exchange-Correlation Energy =      -4.4859526146017989
    Empirical Dispersion Energy =           0.0000000000000000
    VV10 Nonlocal Energy =                  0.0000000000000000
    Total Energy =                        -38.4733703186960980

  UHF NO Occupations:
  HONO-2 :    2 A1 1.9995542
  HONO-1 :    3 A1 1.9985821
  HONO-0 :    1 B1 1.0000000
  LUNO+0 :    4 A1 0.0014179
  LUNO+1 :    5 A1 0.0004458
  LUNO+2 :    6 A1 0.0000007
  LUNO+3 :    7 A1 0.0000000

Computation Completed

Properties will be evaluated at   0.000000,   0.000000,   0.000000 [a0]

Properties computed using the B3LYP density matrix

 Multipole Moments:

 ------------------------------------------------------------------------------------
     Multipole            Electronic (a.u.)      Nuclear  (a.u.)        Total (a.u.)
 ------------------------------------------------------------------------------------

 L = 1.  Multiply by 2.5417464519 to convert [e a0] to [Debye]
 Dipole X            :          0.0000000            0.0000000            0.0000000
 Dipole Y            :          0.0000000            0.0000000            0.0000000
 Dipole Z            :         -0.8523857            1.2078289            0.3554432
 Magnitude           :                                                    0.3554432

 L = 2.  Multiply by 1.3450342976 to convert [e a0^2] to [Debye ang]
 Quadrupole XX       :         -5.8819274            0.0000000           -5.8819274
 Quadrupole XY       :          0.0000000            0.0000000            0.0000000
 Quadrupole XZ       :          0.0000000            0.0000000            0.0000000
 Quadrupole YY       :         -4.4116390            0.0000000           -4.4116390
 Quadrupole YZ       :          0.0000000            0.0000000            0.0000000
 Quadrupole ZZ       :        -11.8863908            6.1786831           -5.7077077
 Traceless XX        :          1.5113917           -2.0595610           -0.5481694
 Traceless YY        :          2.9816800           -2.0595610            0.9221190
 Traceless ZZ        :         -4.4930717            4.1191221           -0.3739496

 ------------------------------------------------------------------------------------
  ==> Computing MBIS Charges <==

  Electron Count from Grid (Expected Number):  7.00000 ( 7.00000)
  Difference:  0.00000

  MBIS Charges: (a.u.)
   Center  Symbol  Z      Pop.       Charge
      1       C    6    6.018716   -0.018716
      2       H    1    0.981284    0.018716

  MBIS Dipoles: [e a0]
   Center  Symbol  Z        X           Y           Z
      1       C    6   -0.000000   -0.000000    0.234971
      2       H    1   -0.000000    0.000000    0.071077

  MBIS Quadrupoles: [e a0^2]
   Center  Symbol  Z      XX        XY        XZ        YY        YZ        ZZ
      1       C    6   -5.0747    0.0000    0.0000   -3.6807    0.0000   -5.2795
      2       H    1   -0.8072   -0.0000    0.0000   -0.7309    0.0000   -0.7884

  MBIS Octupoles: [e a0^3]
   Center  Symbol  Z      XXX       XXY       XXZ       XYY       XYZ       XZZ       YYY       YYZ       YZZ       ZZZ
      1       C    6   -0.0000    0.0000    0.2803   -0.0000   -0.0000    0.0000   -0.0000    0.2451   -0.0000    0.4469
      2       H    1    0.0000    0.0000    0.0067    0.0000   -0.0000    0.0000    0.0000   -0.0622   -0.0000    0.0095

  MBIS Radial Moments:
   Center  Symbol  Z      [a0^2]      [a0^3]      [a0^4]
      1       C    6   14.034880   34.922695   103.883521
      2       H    1    2.326565    5.137439   13.627526

  MBIS Valence Widths: [a0]
   Center  Symbol  Z     Width
      1       C    6    0.523982
      2       H    1    0.446810

*** tstop() called on Mac.lan at Sun Aug 10 17:09:27 2025
Module time:
	user time   =       2.83 seconds =       0.05 minutes
	system time =       1.51 seconds =       0.03 minutes
	total time  =          0 seconds =       0.00 minutes
Total time:
	user time   =      11.67 seconds =       0.19 minutes
	system time =       3.98 seconds =       0.07 minutes
	total time  =          1 seconds =       0.02 minutes

    Psi4 stopped on: Sunday, 10 August 2025 05:09PM
    Psi4 wall time for execution: 0:00:01.53

*** Psi4 exiting successfully. Buy a developer a beer!
