                               Psi4 1.9.1 release

  ==> Input File <==

--------------------------------------------------------------------------
molecule {
0 2
C           0.000000           0.000000           0.000000
H           0.000000           0.000000           1.623632
}

set {
basis              cc-pvtz
reference          uks
maxiter            500
DAMPING_PERCENTAGE 1
E_CONVERGENCE      1.0E-8
D_CONVERGENCE      1.0E-8
DIIS_MAX_VECS      400
MBIS_MAXITER       8000
guess              read
}

E, wfn = energy('b3lyp', restart_file='last_wfn', return_wfn=True)
properties('b3lyp','MBIS_CHARGES', wfn=wfn)
wfn.to_file('last_wfn')
--------------------------------------------------------------------------

    Molecular point group: c2v
  Charge       = 0
  Multiplicity = 2
  Basis Set: CC-PVTZ
    Blend: CC-PVTZ
  Basis Set: (CC-PVTZ AUX)
    Blend: CC-PVTZ-JKFIT
  @DF-UKS Final Energy:   -38.44183832861939
    Total Energy =                        -38.4418383286193901
 Dipole X            :          0.0000000            0.0000000            0.0000000
 Dipole Y            :          0.0000000            0.0000000            0.0000000
 Dipole Z            :         -1.2462627            1.4041752            0.1579125
 Magnitude           :                                                    0.1579125
    Molecular point group: c2v

    Geometry (in Angstrom), charge = 0, multiplicity = 2:

       Center              X                  Y                   Z               Mass
    ------------   -----------------  -----------------  -----------------  -----------------
         C            0.000000000000     0.000000000000    -0.125796354785    12.000000000000
         H            0.000000000000     0.000000000000     1.497835645215     1.007825032230

  Charge       = 0
  Multiplicity = 2
  Basis Set: CC-PVTZ
    Blend: CC-PVTZ
  Basis Set: (CC-PVTZ AUX)
    Blend: CC-PVTZ-JKFIT

    Orbital Energies [Eh]
    ---------------------

    Alpha Occupied:

       1A1   -10.330126     2A1    -0.595210     3A1    -0.309004
       1B1    -0.273112

    Alpha Virtual:

       1B2    -0.158201     4A1    -0.034708     5A1     0.256996
       2B1     0.282128     2B2     0.301236     6A1     0.311469
       7A1     0.443300     3B1     0.537164     3B2     0.539111
       1A2     0.649992     8A1     0.655697     9A1     0.799602
       4B1     0.893458     4B2     0.895122    10A1     1.185294
       5B1     1.885016     5B2     1.912100    11A1     2.043970
      12A1     2.422146     6B1     2.542128     6B2     2.545017
      13A1     2.579128     2A2     2.609690    14A1     2.614778
       7B1     2.628632     7B2     2.631283     3A2     2.869966
      15A1     2.882526     8B1     2.934646     8B2     2.952311
      16A1     3.192890     4A2     3.253987    17A1     3.254640
       9B2     3.569653     9B1     3.571025    18A1     3.601456
      10B2     3.839112    10B1     3.840040    19A1     4.029655
      20A1     5.051642

    Beta Occupied:

       1A1   -10.313965     2A1    -0.540549     3A1    -0.299145

    Beta Virtual:

       1B2    -0.141338     1B1    -0.093477     4A1    -0.025132
       5A1     0.254266     2B2     0.308489     6A1     0.321083
       2B1     0.337277     7A1     0.465815     3B2     0.538321
       3B1     0.554498     8A1     0.692669     1A2     0.693623
       9A1     0.810487     4B2     0.895352     4B1     0.914839
      10A1     1.189505     5B2     1.923017     5B1     1.966841
      11A1     2.055638    12A1     2.415605     6B2     2.549374
       6B1     2.580213    13A1     2.594796     2A2     2.648377
      14A1     2.653011     7B2     2.687515     7B1     2.688193
      15A1     2.946192     3A2     2.947168     8B2     2.961609
       8B1     3.005470    16A1     3.215478     4A2     3.249750
      17A1     3.250622     9B2     3.559930     9B1     3.567397
      18A1     3.625805    10B2     3.830268    10B1     3.840308
      19A1     4.022340    20A1     5.059483

    Final Occupation by Irrep:
             A1    A2    B1    B2
    DOCC [     3,    0,    0,    0 ]
    SOCC [     0,    0,    1,    0 ]
    NA   [     3,    0,    1,    0 ]
    NB   [     3,    0,    0,    0 ]

  @DF-UKS Final Energy:   -38.44183832994418

   => Energetics <=

    Nuclear Repulsion Energy =              1.9555313420898333
    One-Electron Energy =                 -54.9169198295396868
    Two-Electron Energy =                  18.9710417192502021
    DFT Exchange-Correlation Energy =      -4.4514915617445192
    Empirical Dispersion Energy =           0.0000000000000000
    VV10 Nonlocal Energy =                  0.0000000000000000
    Total Energy =                        -38.4418383299441686

  UHF NO Occupations:
  HONO-2 :    2 A1 1.9990128
  HONO-1 :    3 A1 1.9972104
  HONO-0 :    1 B1 1.0000000
  LUNO+0 :    4 A1 0.0027896
  LUNO+1 :    5 A1 0.0009872
  LUNO+2 :    6 A1 0.0000007
  LUNO+3 :    7 A1 0.0000000

Computation Completed

Properties will be evaluated at   0.000000,   0.000000,   0.000000 [a0]

Properties computed using the B3LYP density matrix

 Multipole Moments:

 ------------------------------------------------------------------------------------
     Multipole            Electronic (a.u.)      Nuclear  (a.u.)        Total (a.u.)
 ------------------------------------------------------------------------------------

 L = 1.  Multiply by 2.5417464519 to convert [e a0] to [Debye]
 Dipole X            :          0.0000000            0.0000000            0.0000000
 Dipole Y            :          0.0000000            0.0000000            0.0000000
 Dipole Z            :         -1.2462627            1.4041752            0.1579125
 Magnitude           :                                                    0.1579125

 L = 2.  Multiply by 1.3450342976 to convert [e a0^2] to [Debye ang]
 Quadrupole XX       :         -6.0096286            0.0000000           -6.0096286
 Quadrupole XY       :          0.0000000            0.0000000            0.0000000
 Quadrupole XZ       :          0.0000000            0.0000000            0.0000000
 Quadrupole YY       :         -4.5675447            0.0000000           -4.5675447
 Quadrupole YZ       :          0.0000000            0.0000000            0.0000000
 Quadrupole ZZ       :        -14.2444526            8.3507921           -5.8936605
 Traceless XX        :          2.2642467           -2.7835974           -0.5193506
 Traceless YY        :          3.7063306           -2.7835974            0.9227332
 Traceless ZZ        :         -5.9705773            5.5671947           -0.4033826

 ------------------------------------------------------------------------------------
  ==> Computing MBIS Charges <==

  Electron Count from Grid (Expected Number):  7.00000 ( 7.00000)
  Difference: -0.00000

  MBIS Charges: (a.u.)
   Center  Symbol  Z      Pop.       Charge
      1       C    6    5.969959    0.030041
      2       H    1    1.030041   -0.030041

  MBIS Dipoles: [e a0]
   Center  Symbol  Z        X           Y           Z
      1       C    6   -0.000000    0.000000    0.152559
      2       H    1    0.000000   -0.000000    0.097526

  MBIS Quadrupoles: [e a0^2]
   Center  Symbol  Z      XX        XY        XZ        YY        YZ        ZZ
      1       C    6   -5.0201   -0.0000    0.0000   -3.6474   -0.0000   -5.1820
      2       H    1   -0.9895   -0.0000    0.0000   -0.9201   -0.0000   -0.9522

  MBIS Octupoles: [e a0^3]
   Center  Symbol  Z      XXX       XXY       XXZ       XYY       XYZ       XZZ       YYY       YYZ       YZZ       ZZZ
      1       C    6   -0.0000    0.0000    0.1494   -0.0000    0.0000   -0.0000   -0.0000    0.0865   -0.0000    0.0970
      2       H    1    0.0000   -0.0000    0.0443    0.0000   -0.0000    0.0000   -0.0000   -0.0418   -0.0000    0.1121

  MBIS Radial Moments:
   Center  Symbol  Z      [a0^2]      [a0^3]      [a0^4]
      1       C    6   13.849537   34.360048   101.743186
      2       H    1    2.861877    6.795060   19.241330

  MBIS Valence Widths: [a0]
   Center  Symbol  Z     Width
      1       C    6    0.523816
      2       H    1    0.484080

*** tstop() called on Mac.lan at Sun Aug 10 17:09:50 2025
Module time:
	user time   =       2.89 seconds =       0.05 minutes
	system time =       1.72 seconds =       0.03 minutes
	total time  =          0 seconds =       0.00 minutes
Total time:
	user time   =      12.82 seconds =       0.21 minutes
	system time =       4.00 seconds =       0.07 minutes
	total time  =          1 seconds =       0.02 minutes

    Psi4 stopped on: Sunday, 10 August 2025 05:09PM
    Psi4 wall time for execution: 0:00:01.64

*** Psi4 exiting successfully. Buy a developer a beer!
