                               Psi4 1.9.1 release

  ==> Input File <==

--------------------------------------------------------------------------
molecule {
0 2
N           0.000000           0.000000           0.000000
C           0.000000           0.000000           0.825813
}

set {
basis              cc-pvtz
reference          uks
maxiter            500
DAMPING_PERCENTAGE 1
E_CONVERGENCE      1.0E-8
D_CONVERGENCE      1.0E-8
DIIS_MAX_VECS      400
MBIS_MAXITER       8000
guess              read
}

E, wfn = energy('b3lyp', restart_file='last_wfn', return_wfn=True)
properties('b3lyp','MBIS_CHARGES', wfn=wfn)
wfn.to_file('last_wfn')
--------------------------------------------------------------------------

    Molecular point group: c2v
  Charge       = 0
  Multiplicity = 2
  Basis Set: CC-PVTZ
    Blend: CC-PVTZ
  Basis Set: (CC-PVTZ AUX)
    Blend: CC-PVTZ-JKFIT
  @DF-UKS Final Energy:   -92.22104668949895
    Total Energy =                        -92.2210466894989480
 Dipole X            :          0.0000000            0.0000000            0.0000000
 Dipole Y            :          0.0000000            0.0000000            0.0000000
 Dipole Z            :          0.8246541            0.0011069            0.8257610
 Magnitude           :                                                    0.8257610
    Molecular point group: c2v

    Geometry (in Angstrom), charge = 0, multiplicity = 2:

       Center              X                  Y                   Z               Mass
    ------------   -----------------  -----------------  -----------------  -----------------
         N            0.000000000000     0.000000000000    -0.381099403798    14.003074004430
         C            0.000000000000     0.000000000000     0.444713596202    12.000000000000

  Charge       = 0
  Multiplicity = 2
  Basis Set: CC-PVTZ
    Blend: CC-PVTZ
  Basis Set: (CC-PVTZ AUX)
    Blend: CC-PVTZ-JKFIT

    Orbital Energies [Eh]
    ---------------------

    Alpha Occupied:

       1A1   -14.267546     2A1   -10.211923     3A1    -1.027317
       1B1    -0.497938     1B2    -0.497938     4A1    -0.453975
       5A1    -0.363868

    Alpha Virtual:

       2B1     0.115305     2B2     0.115305     6A1     0.184001
       7A1     0.237691     3B2     0.281189     3B1     0.281189
       8A1     0.467201     4B1     0.550503     4B2     0.550503
       1A2     0.616588     9A1     0.616588    10A1     0.819079
       5B1     0.968720     5B2     0.968720    11A1     1.072649
      12A1     1.272800     2A2     1.272800     6B2     1.544874
       6B1     1.544874    13A1     1.557662     7B1     1.903531
       7B2     1.903531    14A1     2.207757    15A1     2.440319
       8B1     2.597994     8B2     2.597994     3A2     2.808901
      16A1     2.808901     9B2     2.877158     9B1     2.877158
      17A1     2.896464    18A1     2.962990     4A2     2.962990
      10B2     3.335450    10B1     3.335450    19A1     3.397775
      11B2     3.699828    11B1     3.699828    12B2     4.121721
      12B1     4.121721    20A1     4.567044     5A2     4.567045
      21A1     4.692476    13B2     5.123111    13B1     5.123111
      22A1     5.222876     6A2     5.222876    23A1     5.622872
      24A1     6.262908    14B2     6.434843    14B1     6.434843
      25A1     8.020099    26A1    17.665986

    Beta Occupied:

       1A1   -14.265476     2A1   -10.192217     3A1    -1.011810
       1B1    -0.485486     1B2    -0.485486     4A1    -0.360698

    Beta Virtual:

       5A1    -0.230453     2B1     0.135080     2B2     0.135080
       6A1     0.190882     7A1     0.285621     3B2     0.296462
       3B1     0.296462     8A1     0.480351     4B1     0.563773
       4B2     0.563773     1A2     0.630964     9A1     0.630964
      10A1     0.867817     5B1     0.994731     5B2     0.994731
      11A1     1.082889     2A2     1.275519    12A1     1.275519
       6B2     1.554835     6B1     1.554835    13A1     1.603577
       7B1     1.925932     7B2     1.925932    14A1     2.239116
      15A1     2.512462     8B1     2.618930     8B2     2.618930
       3A2     2.829398    16A1     2.829398    17A1     2.957285
       9B2     2.970276     9B1     2.970276     4A2     3.021983
      18A1     3.021987    10B2     3.340056    10B1     3.340056
      19A1     3.461500    11B2     3.732677    11B1     3.732677
      12B2     4.121100    12B1     4.121100    20A1     4.561634
       5A2     4.561635    21A1     4.709451    13B2     5.132329
      13B1     5.132329     6A2     5.232864    22A1     5.232864
      23A1     5.638277    24A1     6.301543    14B2     6.463249
      14B1     6.463249    25A1     8.034468    26A1    17.695207

    Final Occupation by Irrep:
             A1    A2    B1    B2
    DOCC [     4,    0,    1,    1 ]
    SOCC [     1,    0,    0,    0 ]
    NA   [     5,    0,    1,    1 ]
    NB   [     4,    0,    1,    1 ]

  @DF-UKS Final Energy:   -92.22104669001556

   => Energetics <=

    Nuclear Repulsion Energy =             26.9134087839983138
    One-Electron Energy =                -176.7628110514496882
    Two-Electron Energy =                  67.9009249276306122
    DFT Exchange-Correlation Energy =     -10.2725693501947788
    Empirical Dispersion Energy =           0.0000000000000000
    VV10 Nonlocal Energy =                  0.0000000000000000
    Total Energy =                        -92.2210466900155552

  UHF NO Occupations:
  HONO-2 :    1 B2 1.9990571
  HONO-1 :    1 B1 1.9990571
  HONO-0 :    5 A1 1.0000000
  LUNO+0 :    2 B2 0.0009429
  LUNO+1 :    2 B1 0.0009429
  LUNO+2 :    6 A1 0.0001275
  LUNO+3 :    7 A1 0.0000206

Computation Completed

Properties will be evaluated at   0.000000,   0.000000,   0.000000 [a0]

Properties computed using the B3LYP density matrix

 Multipole Moments:

 ------------------------------------------------------------------------------------
     Multipole            Electronic (a.u.)      Nuclear  (a.u.)        Total (a.u.)
 ------------------------------------------------------------------------------------

 L = 1.  Multiply by 2.5417464519 to convert [e a0] to [Debye]
 Dipole X            :          0.0000000            0.0000000            0.0000000
 Dipole Y            :          0.0000000            0.0000000            0.0000000
 Dipole Z            :          0.8246541            0.0011069            0.8257610
 Magnitude           :                                                    0.8257610

 L = 2.  Multiply by 1.3450342976 to convert [e a0^2] to [Debye ang]
 Quadrupole XX       :         -7.0880408            0.0000000           -7.0880408
 Quadrupole XY       :          0.0000000            0.0000000            0.0000000
 Quadrupole XZ       :          0.0000000            0.0000000            0.0000000
 Quadrupole YY       :         -7.0880408            0.0000000           -7.0880408
 Quadrupole YZ       :          0.0000000            0.0000000            0.0000000
 Quadrupole ZZ       :        -15.5294775            7.8680499           -7.6614275
 Traceless XX        :          2.8138122           -2.6226833            0.1911289
 Traceless YY        :          2.8138122           -2.6226833            0.1911289
 Traceless ZZ        :         -5.6276245            5.2453666           -0.3822578

 ------------------------------------------------------------------------------------
  ==> Computing MBIS Charges <==

  Electron Count from Grid (Expected Number): 13.00000 (13.00000)
  Difference:  0.00000

  MBIS Charges: (a.u.)
   Center  Symbol  Z      Pop.       Charge
      1       N    7    7.522184   -0.522184
      2       C    6    5.477817    0.522183

  MBIS Dipoles: [e a0]
   Center  Symbol  Z        X           Y           Z
      1       N    7   -0.000000   -0.000000   -0.068201
      2       C    6   -0.000000    0.000000    0.079064

  MBIS Quadrupoles: [e a0^2]
   Center  Symbol  Z      XX        XY        XZ        YY        YZ        ZZ
      1       N    7   -4.0746    0.0000   -0.0000   -4.0746   -0.0000   -4.6883
      2       C    6   -3.0135    0.0000    0.0000   -3.0135    0.0000   -3.3022

  MBIS Octupoles: [e a0^3]
   Center  Symbol  Z      XXX       XXY       XXZ       XYY       XYZ       XZZ       YYY       YYZ       YZZ       ZZZ
      1       N    7   -0.0000   -0.0000    0.0251   -0.0000    0.0000   -0.0000   -0.0000    0.0251    0.0000    0.4906
      2       C    6   -0.0000   -0.0000   -0.1100   -0.0000    0.0000    0.0000    0.0000   -0.1100    0.0000   -0.4096

  MBIS Radial Moments:
   Center  Symbol  Z      [a0^2]      [a0^3]      [a0^4]
      1       N    7   12.837471   26.753877   67.116485
      2       C    6    9.329121   20.484193   54.426907

  MBIS Valence Widths: [a0]
   Center  Symbol  Z     Width
      1       N    7    0.426618
      2       C    6    0.449726

*** tstop() called on Mac.lan at Sun Aug 10 17:13:24 2025
Module time:
	user time   =       3.55 seconds =       0.06 minutes
	system time =       2.42 seconds =       0.04 minutes
	total time  =          0 seconds =       0.00 minutes
Total time:
	user time   =      18.54 seconds =       0.31 minutes
	system time =       4.68 seconds =       0.08 minutes
	total time  =          2 seconds =       0.03 minutes

    Psi4 stopped on: Sunday, 10 August 2025 05:13PM
    Psi4 wall time for execution: 0:00:02.25

*** Psi4 exiting successfully. Buy a developer a beer!
