                               Psi4 1.9.1 release

  ==> Input File <==

--------------------------------------------------------------------------
molecule {
0 1
O           0.000000           0.000000           0.000000
C           0.000000           0.000000           1.606459
}

set {
basis              cc-pvtz
reference          uks
maxiter            500
DAMPING_PERCENTAGE 1
E_CONVERGENCE      1.0E-8
D_CONVERGENCE      1.0E-8
DIIS_MAX_VECS      400
MBIS_MAXITER       8000
guess              read
}

E, wfn = energy('b3lyp', restart_file='last_wfn', return_wfn=True)
properties('b3lyp','MBIS_CHARGES', wfn=wfn)
wfn.to_file('last_wfn')
--------------------------------------------------------------------------

    Molecular point group: c2v
  Charge       = 0
  Multiplicity = 1
  Basis Set: CC-PVTZ
    Blend: CC-PVTZ
  Basis Set: (CC-PVTZ AUX)
    Blend: CC-PVTZ-JKFIT
  @DF-UKS Final Energy:  -113.15924200036679
    Total Energy =                       -113.1592420003667883
 Dipole X            :          0.0000000            0.0000000            0.0000000
 Dipole Y            :          0.0000000            0.0000000            0.0000000
 Dipole Z            :          0.5944991           -0.0033088            0.5911904
 Magnitude           :                                                    0.5911904
    Molecular point group: c2v

    Geometry (in Angstrom), charge = 0, multiplicity = 1:

       Center              X                  Y                   Z               Mass
    ------------   -----------------  -----------------  -----------------  -----------------
         O            0.000000000000     0.000000000000    -0.688607493967    15.994914619570
         C            0.000000000000     0.000000000000     0.917851506033    12.000000000000

  Charge       = 0
  Multiplicity = 1
  Basis Set: CC-PVTZ
    Blend: CC-PVTZ
  Basis Set: (CC-PVTZ AUX)
    Blend: CC-PVTZ-JKFIT

    Orbital Energies [Eh]
    ---------------------

    Alpha Occupied:

       1A1   -19.230736     2A1   -10.411333     3A1    -0.969274
       4A1    -0.596320     5A1    -0.388072     1B1    -0.365446
       1B2    -0.365446

    Alpha Virtual:

       2B1    -0.157900     2B2    -0.157900     6A1     0.023383
       7A1     0.271515     3B1     0.285326     3B2     0.285326
       8A1     0.319570     9A1     0.552927     4B1     0.602923
       4B2     0.602923    10A1     0.630717     1A2     0.630717
       5B1     0.738836     5B2     0.738836    11A1     0.960130
      12A1     1.212118     2A2     1.466338    13A1     1.466338
       6B1     1.619864     6B2     1.619864    14A1     1.792926
       7B2     1.934226     7B1     1.934226    15A1     2.271971
       8B2     2.606882     8B1     2.606882     3A2     2.635924
      16A1     2.635924     9B2     2.775577     9B1     2.775577
      17A1     2.799918    18A1     2.865489     4A2     2.865490
      10B1     3.054950    10B2     3.054950    19A1     3.147487
      11B2     3.659179    11B1     3.659179    20A1     3.670686
      21A1     4.683202    12B1     5.096865    12B2     5.096865
      22A1     5.136508     5A2     5.136510    13B1     5.359205
      13B2     5.359205    23A1     5.717565     6A2     6.168284
      24A1     6.168333    14B2     6.462063    14B1     6.462063
      25A1     7.015764    26A1     8.188779

    Beta Occupied:

       1A1   -19.230736     2A1   -10.411333     3A1    -0.969274
       4A1    -0.596320     5A1    -0.388072     1B1    -0.365446
       1B2    -0.365446

    Beta Virtual:

       2B1    -0.157900     2B2    -0.157900     6A1     0.023383
       7A1     0.271515     3B1     0.285326     3B2     0.285326
       8A1     0.319570     9A1     0.552927     4B1     0.602923
       4B2     0.602923    10A1     0.630717     1A2     0.630717
       5B1     0.738836     5B2     0.738836    11A1     0.960130
      12A1     1.212118     2A2     1.466338    13A1     1.466338
       6B1     1.619864     6B2     1.619864    14A1     1.792926
       7B2     1.934226     7B1     1.934226    15A1     2.271971
       8B2     2.606882     8B1     2.606882     3A2     2.635924
      16A1     2.635924     9B2     2.775577     9B1     2.775577
      17A1     2.799918    18A1     2.865489     4A2     2.865490
      10B1     3.054950    10B2     3.054950    19A1     3.147487
      11B2     3.659179    11B1     3.659179    20A1     3.670686
      21A1     4.683202    12B1     5.096865    12B2     5.096865
      22A1     5.136508     5A2     5.136510    13B1     5.359205
      13B2     5.359205    23A1     5.717565     6A2     6.168284
      24A1     6.168333    14B2     6.462063    14B1     6.462063
      25A1     7.015764    26A1     8.188779

    Final Occupation by Irrep:
             A1    A2    B1    B2
    DOCC [     5,    0,    1,    1 ]
    SOCC [     0,    0,    0,    0 ]
    NA   [     5,    0,    1,    1 ]
    NB   [     5,    0,    1,    1 ]

  @DF-UKS Final Energy:  -113.15924200038086

   => Energetics <=

    Nuclear Repulsion Energy =             15.8114873222161272
    One-Electron Energy =                -185.3712612794121242
    Two-Electron Energy =                  67.3941828274715959
    DFT Exchange-Correlation Energy =     -10.9936508706564595
    Empirical Dispersion Energy =           0.0000000000000000
    VV10 Nonlocal Energy =                  0.0000000000000000
    Total Energy =                       -113.1592420003808570

  UHF NO Occupations:
  HONO-2 :    3 A1 2.0000000
  HONO-1 :    4 A1 2.0000000
  HONO-0 :    5 A1 2.0000000
  LUNO+0 :    6 A1 0.0000000
  LUNO+1 :    7 A1 0.0000000
  LUNO+2 :    8 A1 0.0000000
  LUNO+3 :    9 A1 0.0000000

Computation Completed

Properties will be evaluated at   0.000000,   0.000000,   0.000000 [a0]

Properties computed using the B3LYP density matrix

 Multipole Moments:

 ------------------------------------------------------------------------------------
     Multipole            Electronic (a.u.)      Nuclear  (a.u.)        Total (a.u.)
 ------------------------------------------------------------------------------------

 L = 1.  Multiply by 2.5417464519 to convert [e a0] to [Debye]
 Dipole X            :          0.0000000            0.0000000            0.0000000
 Dipole Y            :          0.0000000            0.0000000            0.0000000
 Dipole Z            :          0.5944991           -0.0033088            0.5911904
 Magnitude           :                                                    0.5911904

 L = 2.  Multiply by 1.3450342976 to convert [e a0^2] to [Debye ang]
 Quadrupole XX       :         -8.1666242            0.0000000           -8.1666242
 Quadrupole XY       :          0.0000000            0.0000000            0.0000000
 Quadrupole XZ       :          0.0000000            0.0000000            0.0000000
 Quadrupole YY       :         -8.1666242            0.0000000           -8.1666242
 Quadrupole YZ       :          0.0000000            0.0000000            0.0000000
 Quadrupole ZZ       :        -40.1235271           31.5973193           -8.5262078
 Traceless XX        :         10.6523010          -10.5324398            0.1198612
 Traceless YY        :         10.6523010          -10.5324398            0.1198612
 Traceless ZZ        :        -21.3046020           21.0648795           -0.2397224

 ------------------------------------------------------------------------------------
  ==> Computing MBIS Charges <==

  Electron Count from Grid (Expected Number): 14.00000 (14.00000)
  Difference: -0.00000

  MBIS Charges: (a.u.)
   Center  Symbol  Z      Pop.       Charge
      1       O    8    8.299915   -0.299915
      2       C    6    5.700084    0.299916

  MBIS Dipoles: [e a0]
   Center  Symbol  Z        X           Y           Z
      1       O    8    0.000000   -0.000000   -0.153643
      2       C    6    0.000000    0.000000   -0.165643

  MBIS Quadrupoles: [e a0^2]
   Center  Symbol  Z      XX        XY        XZ        YY        YZ        ZZ
      1       O    8   -4.1948   -0.0000    0.0000   -4.1948    0.0000   -4.1891
      2       C    6   -3.9719    0.0000    0.0000   -3.9719    0.0000   -4.5567

  MBIS Octupoles: [e a0^3]
   Center  Symbol  Z      XXX       XXY       XXZ       XYY       XYZ       XZZ       YYY       YYZ       YZZ       ZZZ
      1       O    8    0.0000   -0.0000   -0.1708   -0.0000    0.0000   -0.0000    0.0000   -0.1708   -0.0000   -0.5389
      2       C    6   -0.0000   -0.0000    0.0649    0.0000    0.0000    0.0000    0.0000    0.0649    0.0000   -0.0393

  MBIS Radial Moments:
   Center  Symbol  Z      [a0^2]      [a0^3]      [a0^4]
      1       O    8   12.578666   24.387537   56.466100
      2       C    6   12.500472   30.240981   86.866511

  MBIS Valence Widths: [a0]
   Center  Symbol  Z     Width
      1       O    8    0.398688
      2       C    6    0.514410

*** tstop() called on Mac.lan at Sun Aug 10 17:18:54 2025
Module time:
	user time   =       4.09 seconds =       0.07 minutes
	system time =       1.70 seconds =       0.03 minutes
	total time  =          1 seconds =       0.02 minutes
Total time:
	user time   =      18.77 seconds =       0.31 minutes
	system time =       3.92 seconds =       0.07 minutes
	total time  =          2 seconds =       0.03 minutes

    Psi4 stopped on: Sunday, 10 August 2025 05:18PM
    Psi4 wall time for execution: 0:00:02.20

*** Psi4 exiting successfully. Buy a developer a beer!
