                               Psi4 1.9.1 release

  ==> Input File <==

--------------------------------------------------------------------------
molecule {
0 2
O           0.000000           0.000000           0.000000
H           0.000000           0.000000           1.157593
}

set {
basis              cc-pvtz
reference          uks
maxiter            500
DAMPING_PERCENTAGE 1
E_CONVERGENCE      1.0E-8
D_CONVERGENCE      1.0E-8
DIIS_MAX_VECS      400
MBIS_MAXITER       8000
guess              read
}

E, wfn = energy('b3lyp', restart_file='last_wfn', return_wfn=True)
properties('b3lyp','MBIS_CHARGES', wfn=wfn)
wfn.to_file('last_wfn')
--------------------------------------------------------------------------

    Molecular point group: c2v
  Charge       = 0
  Multiplicity = 2
  Basis Set: CC-PVTZ
    Blend: CC-PVTZ
  Basis Set: (CC-PVTZ AUX)
    Blend: CC-PVTZ-JKFIT
  @DF-UKS Final Energy:   -75.74429110330817
    Total Energy =                        -75.7442911033081856
 Dipole X            :          0.0000000            0.0000000            0.0000000
 Dipole Y            :          0.0000000            0.0000000            0.0000000
 Dipole Z            :         -0.3311691            1.0205535            0.6893844
 Magnitude           :                                                    0.6893844
    Molecular point group: c2v

    Geometry (in Angstrom), charge = 0, multiplicity = 2:

       Center              X                  Y                   Z               Mass
    ------------   -----------------  -----------------  -----------------  -----------------
         O            0.000000000000     0.000000000000    -0.068615483529    15.994914619570
         H            0.000000000000     0.000000000000     1.088977516471     1.007825032230

  Charge       = 0
  Multiplicity = 2
  Basis Set: CC-PVTZ
    Blend: CC-PVTZ
  Basis Set: (CC-PVTZ AUX)
    Blend: CC-PVTZ-JKFIT

    Orbital Energies [Eh]
    ---------------------

    Alpha Occupied:

       1A1   -19.207594     2A1    -0.980015     3A1    -0.450582
       1B1    -0.410907     1B2    -0.337692

    Alpha Virtual:

       4A1    -0.014949     5A1     0.290940     2B1     0.514594
       6A1     0.542309     2B2     0.546877     3B1     0.677058
       3B2     0.692930     7A1     0.900721     8A1     1.094946
       1A2     1.427469     9A1     1.428151     4B1     1.636870
       4B2     1.674881    10A1     2.046474    11A1     2.301752
       2A2     3.152898    12A1     3.152989     5B1     3.234406
       5B2     3.266624    13A1     3.415449     6B1     3.618618
       6B2     3.640182     7B1     3.821784     7B2     3.859127
      14A1     3.915050    15A1     4.784617     8B1     5.075047
       8B2     5.075300     3A2     5.180940    16A1     5.182524
       9B1     5.771287     9B2     5.820253    17A1     6.081277
      18A1     6.131187     4A2     6.131737    10B1     6.421851
      10B2     6.477347    19A1     6.809981    20A1     8.654718

    Beta Occupied:

       1A1   -19.181543     2A1    -0.904799     3A1    -0.428044
       1B2    -0.311703

    Beta Virtual:

       1B1    -0.162657     4A1    -0.006581     5A1     0.292303
       6A1     0.552588     2B2     0.554738     2B1     0.577176
       3B2     0.692301     3B1     0.696278     7A1     0.932310
       8A1     1.101852     1A2     1.479709     9A1     1.485721
       4B2     1.681291     4B1     1.687772    10A1     2.065299
      11A1     2.296439     2A2     3.150845    12A1     3.151207
       5B2     3.270407     5B1     3.282196    13A1     3.422690
       6B2     3.637225     6B1     3.642770     7B2     3.867357
       7B1     3.880860    14A1     3.923832    15A1     4.810319
       8B2     5.145282     8B1     5.148282     3A2     5.227644
      16A1     5.232784     9B2     5.830620     9B1     5.840143
      17A1     6.107623     4A2     6.224534    18A1     6.238943
      10B2     6.490447    10B1     6.508541    19A1     6.849577
      20A1     8.690951

    Final Occupation by Irrep:
             A1    A2    B1    B2
    DOCC [     3,    0,    0,    1 ]
    SOCC [     0,    0,    1,    0 ]
    NA   [     3,    0,    1,    1 ]
    NB   [     3,    0,    0,    1 ]

  @DF-UKS Final Energy:   -75.74429110315205

   => Energetics <=

    Nuclear Repulsion Energy =              3.6570864590231627
    One-Electron Energy =                -111.4602389464965029
    Two-Electron Energy =                  39.1936300232565245
    DFT Exchange-Correlation Energy =      -7.1347686389352454
    Empirical Dispersion Energy =           0.0000000000000000
    VV10 Nonlocal Energy =                  0.0000000000000000
    Total Energy =                        -75.7442911031520509

  UHF NO Occupations:
  HONO-2 :    2 A1 1.9995060
  HONO-1 :    3 A1 1.9989199
  HONO-0 :    1 B1 1.0000000
  LUNO+0 :    4 A1 0.0010801
  LUNO+1 :    5 A1 0.0004940
  LUNO+2 :    2 B2 0.0001656
  LUNO+3 :    6 A1 0.0000006

Computation Completed

Properties will be evaluated at   0.000000,   0.000000,   0.000000 [a0]

Properties computed using the B3LYP density matrix

 Multipole Moments:

 ------------------------------------------------------------------------------------
     Multipole            Electronic (a.u.)      Nuclear  (a.u.)        Total (a.u.)
 ------------------------------------------------------------------------------------

 L = 1.  Multiply by 2.5417464519 to convert [e a0] to [Debye]
 Dipole X            :          0.0000000            0.0000000            0.0000000
 Dipole Y            :          0.0000000            0.0000000            0.0000000
 Dipole Z            :         -0.3311691            1.0205535            0.6893844
 Magnitude           :                                                    0.6893844

 L = 2.  Multiply by 1.3450342976 to convert [e a0^2] to [Debye ang]
 Quadrupole XX       :         -4.1374005            0.0000000           -4.1374005
 Quadrupole XY       :          0.0000000            0.0000000            0.0000000
 Quadrupole XZ       :          0.0000000            0.0000000            0.0000000
 Quadrupole YY       :         -5.0357884            0.0000000           -5.0357884
 Quadrupole YZ       :          0.0000000            0.0000000            0.0000000
 Quadrupole ZZ       :         -7.3479127            4.3693289           -2.9785838
 Traceless XX        :          1.3696334           -1.4564430           -0.0868096
 Traceless YY        :          0.4712455           -1.4564430           -0.9851975
 Traceless ZZ        :         -1.8408789            2.9128859            1.0720071

 ------------------------------------------------------------------------------------
  ==> Computing MBIS Charges <==

  Electron Count from Grid (Expected Number):  9.00000 ( 9.00000)
  Difference:  0.00000

  MBIS Charges: (a.u.)
   Center  Symbol  Z      Pop.       Charge
      1       O    8    8.339957   -0.339957
      2       H    1    0.660043    0.339957

  MBIS Dipoles: [e a0]
   Center  Symbol  Z        X           Y           Z
      1       O    8    0.000000   -0.000000   -0.099403
      2       H    1    0.000000   -0.000000    0.045121

  MBIS Quadrupoles: [e a0^2]
   Center  Symbol  Z      XX        XY        XZ        YY        YZ        ZZ
      1       O    8   -3.7304    0.0000    0.0000   -4.5872   -0.0000   -4.2217
      2       H    1   -0.4070   -0.0000    0.0000   -0.4486   -0.0000   -0.4023

  MBIS Octupoles: [e a0^3]
   Center  Symbol  Z      XXX       XXY       XXZ       XYY       XYZ       XZZ       YYY       YYZ       YZZ       ZZZ
      1       O    8   -0.0000   -0.0000   -0.1170    0.0000   -0.0000    0.0000   -0.0000   -0.1142   -0.0000   -0.4946
      2       H    1    0.0000   -0.0000   -0.0021    0.0000   -0.0000    0.0000   -0.0000    0.0246   -0.0000    0.0495

  MBIS Radial Moments:
   Center  Symbol  Z      [a0^2]      [a0^3]      [a0^4]
      1       O    8   12.539232   24.216553   55.895628
      2       H    1    1.257966    2.489158    5.891661

  MBIS Valence Widths: [a0]
   Center  Symbol  Z     Width
      1       O    8    0.396666
      2       H    1    0.400019

*** tstop() called on Mac.lan at Sun Aug 10 17:11:29 2025
Module time:
	user time   =       2.54 seconds =       0.04 minutes
	system time =       2.29 seconds =       0.04 minutes
	total time  =          0 seconds =       0.00 minutes
Total time:
	user time   =      12.58 seconds =       0.21 minutes
	system time =       4.38 seconds =       0.07 minutes
	total time  =          1 seconds =       0.02 minutes

    Psi4 stopped on: Sunday, 10 August 2025 05:11PM
    Psi4 wall time for execution: 0:00:01.65

*** Psi4 exiting successfully. Buy a developer a beer!
