                               Psi4 1.9.1 release

  ==> Input File <==

--------------------------------------------------------------------------
molecule {
0 2
N           0.000000           0.000000           0.000000
C           0.000000           0.000000           0.868528
}

set {
basis              cc-pvtz
reference          uks
maxiter            500
DAMPING_PERCENTAGE 1
E_CONVERGENCE      1.0E-8
D_CONVERGENCE      1.0E-8
DIIS_MAX_VECS      400
MBIS_MAXITER       8000
guess              read
}

E, wfn = energy('b3lyp', restart_file='last_wfn', return_wfn=True)
properties('b3lyp','MBIS_CHARGES', wfn=wfn)
wfn.to_file('last_wfn')
--------------------------------------------------------------------------

    Molecular point group: c2v
  Charge       = 0
  Multiplicity = 2
  Basis Set: CC-PVTZ
    Blend: CC-PVTZ
  Basis Set: (CC-PVTZ AUX)
    Blend: CC-PVTZ-JKFIT
  @DF-UKS Final Energy:   -92.38845983344413
    Total Energy =                        -92.3884598334441307
 Dipole X            :          0.0000000            0.0000000            0.0000000
 Dipole Y            :          0.0000000            0.0000000            0.0000000
 Dipole Z            :          0.7866732            0.0011642            0.7878374
 Magnitude           :                                                    0.7878374
    Molecular point group: c2v

    Geometry (in Angstrom), charge = 0, multiplicity = 2:

       Center              X                  Y                   Z               Mass
    ------------   -----------------  -----------------  -----------------  -----------------
         N            0.000000000000     0.000000000000    -0.400811688581    14.003074004430
         C            0.000000000000     0.000000000000     0.467716311419    12.000000000000

  Charge       = 0
  Multiplicity = 2
  Basis Set: CC-PVTZ
    Blend: CC-PVTZ
  Basis Set: (CC-PVTZ AUX)
    Blend: CC-PVTZ-JKFIT

    Orbital Energies [Eh]
    ---------------------

    Alpha Occupied:

       1A1   -14.281074     2A1   -10.217160     3A1    -1.032832
       1B1    -0.480210     1B2    -0.480210     4A1    -0.457239
       5A1    -0.376144

    Alpha Virtual:

       2B2     0.100898     2B1     0.100898     6A1     0.180717
       7A1     0.241831     3B2     0.277479     3B1     0.277479
       8A1     0.461585     4B2     0.543280     4B1     0.543280
       9A1     0.616058     1A2     0.616058    10A1     0.807836
       5B2     0.945860     5B1     0.945860    11A1     1.038753
      12A1     1.257774     2A2     1.257774    13A1     1.550289
       6B1     1.564392     6B2     1.564392     7B1     1.888671
       7B2     1.888671    14A1     2.137531    15A1     2.393550
       8B2     2.598347     8B1     2.598347    16A1     2.807741
       3A2     2.807742    17A1     2.859369     9B2     2.869107
       9B1     2.869107     4A2     2.946695    18A1     2.946695
      10B2     3.273622    10B1     3.273622    19A1     3.330817
      11B1     3.636515    11B2     3.636515    12B1     4.086746
      12B2     4.086746    20A1     4.560022     5A2     4.560023
      21A1     4.621112    13B2     5.048747    13B1     5.048747
      22A1     5.093573     6A2     5.093573    23A1     5.541642
      24A1     5.998400    14B2     6.325511    14B1     6.325511
      25A1     7.867867    26A1    17.074468

    Beta Occupied:

       1A1   -14.279000     2A1   -10.197734     3A1    -1.015908
       1B1    -0.468304     1B2    -0.468304     4A1    -0.372053

    Beta Virtual:

       5A1    -0.235707     2B2     0.122101     2B1     0.122101
       6A1     0.187553     7A1     0.288931     3B2     0.291856
       3B1     0.291856     8A1     0.473971     4B2     0.553531
       4B1     0.553531     1A2     0.630141     9A1     0.630141
      10A1     0.855751     5B2     0.973060     5B1     0.973060
      11A1     1.047334    12A1     1.260567     2A2     1.260567
       6B1     1.573726     6B2     1.573726    13A1     1.597340
       7B1     1.910982     7B2     1.910982    14A1     2.166754
      15A1     2.457915     8B2     2.618966     8B1     2.618966
      16A1     2.822937     3A2     2.822937    17A1     2.910859
       9B2     2.959002     9B1     2.959002     4A2     3.008183
      18A1     3.008184    10B2     3.277737    10B1     3.277737
      19A1     3.406247    11B1     3.669940    11B2     3.669940
      12B1     4.085192    12B2     4.085192    20A1     4.554354
       5A2     4.554355    21A1     4.639797    13B2     5.057888
      13B1     5.057888     6A2     5.102964    22A1     5.102964
      23A1     5.557578    24A1     6.035094    14B2     6.354071
      14B1     6.354071    25A1     7.881656    26A1    17.103389

    Final Occupation by Irrep:
             A1    A2    B1    B2
    DOCC [     4,    0,    1,    1 ]
    SOCC [     1,    0,    0,    0 ]
    NA   [     5,    0,    1,    1 ]
    NB   [     4,    0,    1,    1 ]

  @DF-UKS Final Energy:   -92.38845983386923

   => Energetics <=

    Nuclear Repulsion Energy =             25.5897827682469661
    One-Electron Energy =                -174.4967456804790800
    Two-Electron Energy =                  66.7174899683242870
    DFT Exchange-Correlation Energy =     -10.1989868899614127
    Empirical Dispersion Energy =           0.0000000000000000
    VV10 Nonlocal Energy =                  0.0000000000000000
    Total Energy =                        -92.3884598338692342

  UHF NO Occupations:
  HONO-2 :    1 B1 1.9989719
  HONO-1 :    1 B2 1.9989719
  HONO-0 :    5 A1 1.0000000
  LUNO+0 :    2 B2 0.0010281
  LUNO+1 :    2 B1 0.0010281
  LUNO+2 :    6 A1 0.0002414
  LUNO+3 :    7 A1 0.0000311

Computation Completed

Properties will be evaluated at   0.000000,   0.000000,   0.000000 [a0]

Properties computed using the B3LYP density matrix

 Multipole Moments:

 ------------------------------------------------------------------------------------
     Multipole            Electronic (a.u.)      Nuclear  (a.u.)        Total (a.u.)
 ------------------------------------------------------------------------------------

 L = 1.  Multiply by 2.5417464519 to convert [e a0] to [Debye]
 Dipole X            :          0.0000000            0.0000000            0.0000000
 Dipole Y            :          0.0000000            0.0000000            0.0000000
 Dipole Z            :          0.7866732            0.0011642            0.7878374
 Magnitude           :                                                    0.7878374

 L = 2.  Multiply by 1.3450342976 to convert [e a0^2] to [Debye ang]
 Quadrupole XX       :         -7.2348334            0.0000000           -7.2348334
 Quadrupole XY       :          0.0000000            0.0000000            0.0000000
 Quadrupole XZ       :          0.0000000            0.0000000            0.0000000
 Quadrupole YY       :         -7.2348334            0.0000000           -7.2348334
 Quadrupole YZ       :          0.0000000            0.0000000            0.0000000
 Quadrupole ZZ       :        -16.4023359            8.7030469           -7.6992890
 Traceless XX        :          3.0558342           -2.9010156            0.1548185
 Traceless YY        :          3.0558342           -2.9010156            0.1548185
 Traceless ZZ        :         -6.1116683            5.8020313           -0.3096370

 ------------------------------------------------------------------------------------
  ==> Computing MBIS Charges <==

  Electron Count from Grid (Expected Number): 13.00000 (13.00000)
  Difference:  0.00000

  MBIS Charges: (a.u.)
   Center  Symbol  Z      Pop.       Charge
      1       N    7    7.475415   -0.475415
      2       C    6    5.524586    0.475414

  MBIS Dipoles: [e a0]
   Center  Symbol  Z        X           Y           Z
      1       N    7   -0.000000   -0.000000   -0.081414
      2       C    6    0.000000    0.000000    0.088963

  MBIS Quadrupoles: [e a0^2]
   Center  Symbol  Z      XX        XY        XZ        YY        YZ        ZZ
      1       N    7   -4.0920    0.0000   -0.0000   -4.0920   -0.0000   -4.6694
      2       C    6   -3.1428    0.0000   -0.0000   -3.1428    0.0000   -3.4091

  MBIS Octupoles: [e a0^3]
   Center  Symbol  Z      XXX       XXY       XXZ       XYY       XYZ       XZZ       YYY       YYZ       YZZ       ZZZ
      1       N    7   -0.0000   -0.0000   -0.0093   -0.0000    0.0000   -0.0000   -0.0000   -0.0093    0.0000    0.3780
      2       C    6   -0.0000   -0.0000   -0.0918   -0.0000    0.0000    0.0000    0.0000   -0.0918    0.0000   -0.3407

  MBIS Radial Moments:
   Center  Symbol  Z      [a0^2]      [a0^3]      [a0^4]
      1       N    7   12.853460   26.837326   67.359224
      2       C    6    9.694740   21.502896   57.578970

  MBIS Valence Widths: [a0]
   Center  Symbol  Z     Width
      1       N    7    0.429138
      2       C    6    0.456449

*** tstop() called on Mac.lan at Sun Aug 10 17:13:19 2025
Module time:
	user time   =       4.10 seconds =       0.07 minutes
	system time =       2.46 seconds =       0.04 minutes
	total time  =          1 seconds =       0.02 minutes
Total time:
	user time   =      19.45 seconds =       0.32 minutes
	system time =       4.67 seconds =       0.08 minutes
	total time  =          3 seconds =       0.05 minutes

    Psi4 stopped on: Sunday, 10 August 2025 05:13PM
    Psi4 wall time for execution: 0:00:02.33

*** Psi4 exiting successfully. Buy a developer a beer!
