                               Psi4 1.9.1 release

  ==> Input File <==

--------------------------------------------------------------------------
molecule {
0 1
O           0.000000           0.000000           0.000000
C           0.000000           0.000000           0.841150
}

set {
basis              cc-pvtz
reference          uks
maxiter            500
DAMPING_PERCENTAGE 1
E_CONVERGENCE      1.0E-8
D_CONVERGENCE      1.0E-8
DIIS_MAX_VECS      400
MBIS_MAXITER       8000
guess              read
}

E, wfn = energy('b3lyp', restart_file='last_wfn', return_wfn=True)
properties('b3lyp','MBIS_CHARGES', wfn=wfn)
wfn.to_file('last_wfn')
--------------------------------------------------------------------------

    Molecular point group: c2v
  Charge       = 0
  Multiplicity = 1
  Basis Set: CC-PVTZ
    Blend: CC-PVTZ
  Basis Set: (CC-PVTZ AUX)
    Blend: CC-PVTZ-JKFIT
  @DF-UKS Final Energy:  -112.97410817143808
    Total Energy =                       -112.9741081714380755
 Dipole X            :          0.0000000            0.0000000            0.0000000
 Dipole Y            :          0.0000000            0.0000000            0.0000000
 Dipole Z            :         -0.4005420           -0.0017325           -0.4022745
 Magnitude           :                                                    0.4022745
    Molecular point group: c2v

    Geometry (in Angstrom), charge = 0, multiplicity = 1:

       Center              X                  Y                   Z               Mass
    ------------   -----------------  -----------------  -----------------  -----------------
         O            0.000000000000     0.000000000000    -0.360558342012    15.994914619570
         C            0.000000000000     0.000000000000     0.480591657988    12.000000000000

  Charge       = 0
  Multiplicity = 1
  Basis Set: CC-PVTZ
    Blend: CC-PVTZ
  Basis Set: (CC-PVTZ AUX)
    Blend: CC-PVTZ-JKFIT

    Orbital Energies [Eh]
    ---------------------

    Alpha Occupied:

       1A1   -19.209795     2A1   -10.196422     3A1    -1.312319
       1B1    -0.609789     1B2    -0.609789     4A1    -0.581304
       5A1    -0.348441

    Alpha Virtual:

       2B1     0.089361     2B2     0.089361     6A1     0.167203
       3B1     0.296992     3B2     0.296992     7A1     0.304995
       8A1     0.538238     4B1     0.606493     4B2     0.606493
       1A2     0.633630     9A1     0.633630    10A1     0.837832
       5B2     0.989486     5B1     0.989486    11A1     1.239402
      12A1     1.581397     2A2     1.581397     6B1     1.734308
       6B2     1.734308    13A1     1.771257    14A1     2.043605
       7B2     2.155842     7B1     2.155842     8B1     2.634999
       8B2     2.634999    15A1     2.712471     3A2     2.894188
      16A1     2.894189     9B2     3.034243     9B1     3.034243
       4A2     3.064178    17A1     3.064178    18A1     3.124960
      10B1     3.653188    10B2     3.653188    19A1     3.952494
      11B1     4.256934    11B2     4.256934    12B1     5.156531
      12B2     5.156531    20A1     5.502403     5A2     6.025887
      21A1     6.025888    22A1     6.265850     6A2     6.265850
      23A1     6.363021    13B2     6.506260    13B1     6.506260
      24A1     7.058895    14B1     7.252509    14B2     7.252509
      25A1     9.246898    26A1    16.105109

    Beta Occupied:

       1A1   -19.209795     2A1   -10.196422     3A1    -1.312319
       1B1    -0.609789     1B2    -0.609789     4A1    -0.581304
       5A1    -0.348441

    Beta Virtual:

       2B1     0.089361     2B2     0.089361     6A1     0.167203
       3B1     0.296992     3B2     0.296992     7A1     0.304995
       8A1     0.538238     4B1     0.606493     4B2     0.606493
       1A2     0.633630     9A1     0.633630    10A1     0.837832
       5B2     0.989486     5B1     0.989486    11A1     1.239402
      12A1     1.581397     2A2     1.581397     6B1     1.734308
       6B2     1.734308    13A1     1.771257    14A1     2.043605
       7B2     2.155842     7B1     2.155842     8B1     2.634999
       8B2     2.634999    15A1     2.712471     3A2     2.894188
      16A1     2.894189     9B2     3.034243     9B1     3.034243
       4A2     3.064178    17A1     3.064178    18A1     3.124960
      10B1     3.653188    10B2     3.653188    19A1     3.952494
      11B1     4.256934    11B2     4.256934    12B1     5.156531
      12B2     5.156531    20A1     5.502403     5A2     6.025887
      21A1     6.025888    22A1     6.265850     6A2     6.265850
      23A1     6.363021    13B2     6.506260    13B1     6.506260
      24A1     7.058895    14B1     7.252509    14B2     7.252509
      25A1     9.246898    26A1    16.105109

    Final Occupation by Irrep:
             A1    A2    B1    B2
    DOCC [     5,    0,    1,    1 ]
    SOCC [     0,    0,    0,    0 ]
    NA   [     5,    0,    1,    1 ]
    NB   [     5,    0,    1,    1 ]

  @DF-UKS Final Energy:  -112.97410817135338

   => Energetics <=

    Nuclear Repulsion Energy =             30.1973561340545729
    One-Electron Energy =                -212.2842793742619847
    Two-Electron Energy =                  80.7001092226389147
    DFT Exchange-Correlation Energy =     -11.5872941537848941
    Empirical Dispersion Energy =           0.0000000000000000
    VV10 Nonlocal Energy =                  0.0000000000000000
    Total Energy =                       -112.9741081713533788

  UHF NO Occupations:
  HONO-2 :    4 A1 2.0000000
  HONO-1 :    1 B1 2.0000000
  HONO-0 :    5 A1 2.0000000
  LUNO+0 :    6 A1 0.0000000
  LUNO+1 :    7 A1 0.0000000
  LUNO+2 :    8 A1 0.0000000
  LUNO+3 :    9 A1 0.0000000

Computation Completed

Properties will be evaluated at   0.000000,   0.000000,   0.000000 [a0]

Properties computed using the B3LYP density matrix

 Multipole Moments:

 ------------------------------------------------------------------------------------
     Multipole            Electronic (a.u.)      Nuclear  (a.u.)        Total (a.u.)
 ------------------------------------------------------------------------------------

 L = 1.  Multiply by 2.5417464519 to convert [e a0] to [Debye]
 Dipole X            :          0.0000000            0.0000000            0.0000000
 Dipole Y            :          0.0000000            0.0000000            0.0000000
 Dipole Z            :         -0.4005420           -0.0017325           -0.4022745
 Magnitude           :                                                    0.4022745

 L = 2.  Multiply by 1.3450342976 to convert [e a0^2] to [Debye ang]
 Quadrupole XX       :         -6.9804470            0.0000000           -6.9804470
 Quadrupole XY       :          0.0000000            0.0000000            0.0000000
 Quadrupole XZ       :          0.0000000            0.0000000            0.0000000
 Quadrupole YY       :         -6.9804470            0.0000000           -6.9804470
 Quadrupole YZ       :          0.0000000            0.0000000            0.0000000
 Quadrupole ZZ       :        -17.5007584            8.6627912           -8.8379672
 Traceless XX        :          3.5067704           -2.8875971            0.6191734
 Traceless YY        :          3.5067704           -2.8875971            0.6191734
 Traceless ZZ        :         -7.0135409            5.7751941           -1.2383468

 ------------------------------------------------------------------------------------
  ==> Computing MBIS Charges <==

  Electron Count from Grid (Expected Number): 14.00000 (14.00000)
  Difference: -0.00000

  MBIS Charges: (a.u.)
   Center  Symbol  Z      Pop.       Charge
      1       O    8    7.950046    0.049954
      2       C    6    6.049953   -0.049953

  MBIS Dipoles: [e a0]
   Center  Symbol  Z        X           Y           Z
      1       O    8    0.000000   -0.000000   -0.015690
      2       C    6   -0.000000    0.000000   -0.307181

  MBIS Quadrupoles: [e a0^2]
   Center  Symbol  Z      XX        XY        XZ        YY        YZ        ZZ
      1       O    8   -3.0613    0.0000    0.0000   -3.0613   -0.0000   -3.4380
      2       C    6   -3.9191   -0.0000    0.0000   -3.9191    0.0000   -4.8454

  MBIS Octupoles: [e a0^3]
   Center  Symbol  Z      XXX       XXY       XXZ       XYY       XYZ       XZZ       YYY       YYZ       YZZ       ZZZ
      1       O    8   -0.0000    0.0000    0.0571   -0.0000   -0.0000   -0.0000   -0.0000    0.0571    0.0000    0.2034
      2       C    6   -0.0000    0.0000   -0.5102   -0.0000    0.0000   -0.0000    0.0000   -0.5102    0.0000   -1.3545

  MBIS Radial Moments:
   Center  Symbol  Z      [a0^2]      [a0^3]      [a0^4]
      1       O    8    9.560690   16.444474   34.029651
      2       C    6   12.683587   30.057789   84.670238

  MBIS Valence Widths: [a0]
   Center  Symbol  Z     Width
      1       O    8    0.354994
      2       C    6    0.492444

*** tstop() called on Mac.lan at Sun Aug 10 17:17:07 2025
Module time:
	user time   =       3.72 seconds =       0.06 minutes
	system time =       2.24 seconds =       0.04 minutes
	total time  =          0 seconds =       0.00 minutes
Total time:
	user time   =      16.73 seconds =       0.28 minutes
	system time =       4.14 seconds =       0.07 minutes
	total time  =          2 seconds =       0.03 minutes

    Psi4 stopped on: Sunday, 10 August 2025 05:17PM
    Psi4 wall time for execution: 0:00:02.02

*** Psi4 exiting successfully. Buy a developer a beer!
