                               Psi4 1.9.1 release

  ==> Input File <==

--------------------------------------------------------------------------
molecule {
0 2
C           0.000000           0.000000           0.000000
H           0.000000           0.000000           0.963172
}

set {
basis              cc-pvtz
reference          uks
maxiter            500
DAMPING_PERCENTAGE 1
E_CONVERGENCE      1.0E-8
D_CONVERGENCE      1.0E-8
DIIS_MAX_VECS      400
MBIS_MAXITER       8000
guess              read
}

E, wfn = energy('b3lyp', restart_file='last_wfn', return_wfn=True)
properties('b3lyp','MBIS_CHARGES', wfn=wfn)
wfn.to_file('last_wfn')
--------------------------------------------------------------------------

    Molecular point group: c2v
  Charge       = 0
  Multiplicity = 2
  Basis Set: CC-PVTZ
    Blend: CC-PVTZ
  Basis Set: (CC-PVTZ AUX)
    Blend: CC-PVTZ-JKFIT
  @DF-UKS Final Energy:   -38.47833105501891
    Total Energy =                        -38.4783310550189128
 Dipole X            :          0.0000000            0.0000000            0.0000000
 Dipole Y            :          0.0000000            0.0000000            0.0000000
 Dipole Z            :         -0.1471412            0.8329857            0.6858445
 Magnitude           :                                                    0.6858445
    Molecular point group: c2v

    Geometry (in Angstrom), charge = 0, multiplicity = 2:

       Center              X                  Y                   Z               Mass
    ------------   -----------------  -----------------  -----------------  -----------------
         C            0.000000000000     0.000000000000    -0.074624992998    12.000000000000
         H            0.000000000000     0.000000000000     0.888547007002     1.007825032230

  Charge       = 0
  Multiplicity = 2
  Basis Set: CC-PVTZ
    Blend: CC-PVTZ
  Basis Set: (CC-PVTZ AUX)
    Blend: CC-PVTZ-JKFIT

    Orbital Energies [Eh]
    ---------------------

    Alpha Occupied:

       1A1   -10.262301     2A1    -0.691664     3A1    -0.324261
       1B1    -0.258856

    Alpha Virtual:

       1B2    -0.147482     4A1     0.070733     5A1     0.286169
       2B1     0.292564     2B2     0.311946     6A1     0.356132
       7A1     0.502194     3B1     0.590643     3B2     0.594849
       1A2     0.654822     8A1     0.660636     9A1     0.980129
       4B1     1.060998     4B2     1.061159    10A1     1.610869
       5B1     1.940901    11A1     1.941321     5B2     1.966343
      12A1     2.160128     2A2     2.530888    13A1     2.534551
       6B1     2.643008     6B2     2.645189     7B1     2.660249
       7B2     2.668287     3A2     2.902025    14A1     2.912192
      15A1     2.986197     8B1     3.041608     8B2     3.045677
      16A1     3.501118     4A2     3.723857    17A1     3.726214
       9B2     3.881964     9B1     3.884191    18A1     4.973830
      10B1     5.080585    10B2     5.083079    19A1     5.204374
      20A1     9.998471

    Beta Occupied:

       1A1   -10.247823     2A1    -0.651784     3A1    -0.301160

    Beta Virtual:

       1B2    -0.131421     1B1    -0.085795     4A1     0.074188
       5A1     0.293117     2B2     0.319277     2B1     0.347321
       6A1     0.370422     7A1     0.515266     3B2     0.597122
       3B1     0.622626     8A1     0.698284     1A2     0.698351
       9A1     0.992017     4B2     1.062526     4B1     1.081697
      10A1     1.627159    11A1     1.952323     5B2     1.978285
       5B1     2.022243    12A1     2.181180     2A2     2.562312
      13A1     2.562768     6B2     2.670930     6B1     2.698584
       7B2     2.701462     7B1     2.709508    14A1     2.965199
       3A2     2.976629    15A1     3.016741     8B2     3.049325
       8B1     3.084569    16A1     3.513298     4A2     3.740393
      17A1     3.741152     9B2     3.879934     9B1     3.893913
      18A1     4.982603    10B2     5.084906    10B1     5.111978
      19A1     5.211992    20A1    10.013616

    Final Occupation by Irrep:
             A1    A2    B1    B2
    DOCC [     3,    0,    0,    0 ]
    SOCC [     0,    0,    1,    0 ]
    NA   [     3,    0,    1,    0 ]
    NB   [     3,    0,    0,    0 ]

  @DF-UKS Final Energy:   -38.47833105482694

   => Energetics <=

    Nuclear Repulsion Energy =              3.2964654952801786
    One-Electron Energy =                 -57.4916112475922958
    Two-Electron Energy =                  20.3160116456135995
    DFT Exchange-Correlation Energy =      -4.5991969481284265
    Empirical Dispersion Energy =           0.0000000000000000
    VV10 Nonlocal Energy =                  0.0000000000000000
    Total Energy =                        -38.4783310548269384

  UHF NO Occupations:
  HONO-2 :    2 A1 1.9998842
  HONO-1 :    3 A1 1.9987371
  HONO-0 :    1 B1 1.0000000
  LUNO+0 :    4 A1 0.0012629
  LUNO+1 :    5 A1 0.0001158
  LUNO+2 :    6 A1 0.0000007
  LUNO+3 :    7 A1 0.0000000

Computation Completed

Properties will be evaluated at   0.000000,   0.000000,   0.000000 [a0]

Properties computed using the B3LYP density matrix

 Multipole Moments:

 ------------------------------------------------------------------------------------
     Multipole            Electronic (a.u.)      Nuclear  (a.u.)        Total (a.u.)
 ------------------------------------------------------------------------------------

 L = 1.  Multiply by 2.5417464519 to convert [e a0] to [Debye]
 Dipole X            :          0.0000000            0.0000000            0.0000000
 Dipole Y            :          0.0000000            0.0000000            0.0000000
 Dipole Z            :         -0.1471412            0.8329857            0.6858445
 Magnitude           :                                                    0.6858445

 L = 2.  Multiply by 1.3450342976 to convert [e a0^2] to [Debye ang]
 Quadrupole XX       :         -5.5874205            0.0000000           -5.5874205
 Quadrupole XY       :          0.0000000            0.0000000            0.0000000
 Quadrupole XZ       :          0.0000000            0.0000000            0.0000000
 Quadrupole YY       :         -4.0865824            0.0000000           -4.0865824
 Quadrupole YZ       :          0.0000000            0.0000000            0.0000000
 Quadrupole ZZ       :         -8.4269578            2.9387332           -5.4882246
 Traceless XX        :          0.4462331           -0.9795777           -0.5333447
 Traceless YY        :          1.9470712           -0.9795777            0.9674934
 Traceless ZZ        :         -2.3933042            1.9591555           -0.4341487

 ------------------------------------------------------------------------------------
  ==> Computing MBIS Charges <==

  Electron Count from Grid (Expected Number):  7.00000 ( 7.00000)
  Difference:  0.00000

  MBIS Charges: (a.u.)
   Center  Symbol  Z      Pop.       Charge
      1       C    6    6.127882   -0.127882
      2       H    1    0.872118    0.127882

  MBIS Dipoles: [e a0]
   Center  Symbol  Z        X           Y           Z
      1       C    6    0.000000   -0.000000    0.412914
      2       H    1    0.000000    0.000000    0.040168

  MBIS Quadrupoles: [e a0^2]
   Center  Symbol  Z      XX        XY        XZ        YY        YZ        ZZ
      1       C    6   -5.1632    0.0000    0.0000   -3.7210   -0.0000   -5.4509
      2       H    1   -0.4242   -0.0000   -0.0000   -0.3655   -0.0000   -0.4138

  MBIS Octupoles: [e a0^3]
   Center  Symbol  Z      XXX       XXY       XXZ       XYY       XYZ       XZZ       YYY       YYZ       YZZ       ZZZ
      1       C    6    0.0000    0.0000    0.6205   -0.0000   -0.0000   -0.0000    0.0000    0.6939   -0.0000    1.3146
      2       H    1    0.0000    0.0000    0.0081   -0.0000   -0.0000    0.0000   -0.0000   -0.0147    0.0000   -0.0099

  MBIS Radial Moments:
   Center  Symbol  Z      [a0^2]      [a0^3]      [a0^4]
      1       C    6   14.335104   35.743331   106.259785
      2       H    1    1.203568    2.010747    4.042421

  MBIS Valence Widths: [a0]
   Center  Symbol  Z     Width
      1       C    6    0.521780
      2       H    1    0.342669

*** tstop() called on Mac.lan at Sun Aug 10 17:08:35 2025
Module time:
	user time   =       2.99 seconds =       0.05 minutes
	system time =       1.73 seconds =       0.03 minutes
	total time  =          1 seconds =       0.02 minutes
Total time:
	user time   =      11.18 seconds =       0.19 minutes
	system time =       4.12 seconds =       0.07 minutes
	total time  =          2 seconds =       0.03 minutes

    Psi4 stopped on: Sunday, 10 August 2025 05:08PM
    Psi4 wall time for execution: 0:00:01.50

*** Psi4 exiting successfully. Buy a developer a beer!
