                               Psi4 1.9.1 release

  ==> Input File <==

--------------------------------------------------------------------------
molecule {
0 1
N           0.000000           0.000000           0.000000
N           0.000000           0.000000           1.015602
}

set {
basis              cc-pvtz
reference          uks
maxiter            500
DAMPING_PERCENTAGE 1
E_CONVERGENCE      1.0E-8
D_CONVERGENCE      1.0E-8
DIIS_MAX_VECS      400
MBIS_MAXITER       8000
guess              read
}

E, wfn = energy('b3lyp', restart_file='last_wfn', return_wfn=True)
properties('b3lyp','MBIS_CHARGES', wfn=wfn)
wfn.to_file('last_wfn')
--------------------------------------------------------------------------

    Molecular point group: d2h
  Charge       = 0
  Multiplicity = 1
  Basis Set: CC-PVTZ
    Blend: CC-PVTZ
  Basis Set: (CC-PVTZ AUX)
    Blend: CC-PVTZ-JKFIT
  @DF-UKS Final Energy:  -109.54879866788228
    Total Energy =                       -109.5487986678822807
 Dipole X            :          0.0000000            0.0000000            0.0000000
 Dipole Y            :          0.0000000            0.0000000            0.0000000
 Dipole Z            :          0.0000000            0.0000000            0.0000000
 Magnitude           :                                                    0.0000000
    Molecular point group: d2h

    Geometry (in Angstrom), charge = 0, multiplicity = 1:

       Center              X                  Y                   Z               Mass
    ------------   -----------------  -----------------  -----------------  -----------------
         N            0.000000000000     0.000000000000    -0.507801000000    14.003074004430
         N            0.000000000000     0.000000000000     0.507801000000    14.003074004430

  Charge       = 0
  Multiplicity = 1
  Basis Set: CC-PVTZ
    Blend: CC-PVTZ
  Basis Set: (CC-PVTZ AUX)
    Blend: CC-PVTZ-JKFIT

    Orbital Energies [Eh]
    ---------------------

    Alpha Occupied:

       1Ag   -14.397190     1B1u  -14.393470     2Ag    -1.175927
       2B1u   -0.533035     1B3u   -0.497791     1B2u   -0.497791
       3Ag    -0.438124

    Alpha Virtual:

       1B2g    0.012857     1B3g    0.012857     3B1u    0.302045
       2B2u    0.378579     2B3u    0.378579     4Ag     0.401174
       5Ag     0.492605     2B3g    0.544240     2B2g    0.544240
       4B1u    0.753520     6Ag     0.829014     1B1g    0.829014
       5B1u    0.966423     3B2u    1.148145     3B3u    1.148145
       6B1u    1.296258     1Au     1.296258     7Ag     1.663535
       3B2g    1.691461     3B3g    1.691461     7B1u    2.095810
       4B3u    2.727442     4B2u    2.727442     8Ag     2.969793
       4B2g    3.162027     4B3g    3.162027     8B1u    3.328708
       2B1g    3.490219     9Ag     3.490219     5B3u    3.556221
       5B2u    3.556221     6B3u    3.668200     6B2u    3.668200
      10Ag     4.046912     5B2g    4.144590     5B3g    4.144590
       3B1g    4.367328    11Ag     4.367329     6B2g    4.393037
       6B3g    4.393037     2Au     4.493514     9B1u    4.493514
      10B1u    4.834358    12Ag     4.980336    11B1u    5.102169
       3Au     5.102170     7B2u    5.115738     7B3u    5.115738
      12B1u    5.966833     7B2g    6.772380     7B3g    6.772380
      13Ag     7.074615    13B1u   18.993586

    Beta Occupied:

       1Ag   -14.397190     1B1u  -14.393470     2Ag    -1.175927
       2B1u   -0.533035     1B3u   -0.497791     1B2u   -0.497791
       3Ag    -0.438124

    Beta Virtual:

       1B2g    0.012857     1B3g    0.012857     3B1u    0.302045
       2B2u    0.378579     2B3u    0.378579     4Ag     0.401174
       5Ag     0.492605     2B3g    0.544240     2B2g    0.544240
       4B1u    0.753520     6Ag     0.829014     1B1g    0.829014
       5B1u    0.966423     3B2u    1.148145     3B3u    1.148145
       6B1u    1.296258     1Au     1.296258     7Ag     1.663535
       3B2g    1.691461     3B3g    1.691461     7B1u    2.095810
       4B3u    2.727442     4B2u    2.727442     8Ag     2.969793
       4B2g    3.162027     4B3g    3.162027     8B1u    3.328708
       2B1g    3.490219     9Ag     3.490219     5B3u    3.556221
       5B2u    3.556221     6B3u    3.668200     6B2u    3.668200
      10Ag     4.046912     5B2g    4.144590     5B3g    4.144590
       3B1g    4.367328    11Ag     4.367329     6B2g    4.393037
       6B3g    4.393037     2Au     4.493514     9B1u    4.493514
      10B1u    4.834358    12Ag     4.980336    11B1u    5.102169
       3Au     5.102170     7B2u    5.115738     7B3u    5.115738
      12B1u    5.966833     7B2g    6.772380     7B3g    6.772380
      13Ag     7.074615    13B1u   18.993586

    Final Occupation by Irrep:
             Ag   B1g   B2g   B3g    Au   B1u   B2u   B3u
    DOCC [     3,    0,    0,    0,    0,    2,    1,    1 ]
    SOCC [     0,    0,    0,    0,    0,    0,    0,    0 ]
    NA   [     3,    0,    0,    0,    0,    2,    1,    1 ]
    NB   [     3,    0,    0,    0,    0,    2,    1,    1 ]

  @DF-UKS Final Energy:  -109.54879866783391

   => Energetics <=

    Nuclear Repulsion Energy =             25.5313433045917790
    One-Electron Energy =                -198.2575458262889185
    Two-Electron Energy =                  74.3515954335870646
    DFT Exchange-Correlation Energy =     -11.1741915797238427
    Empirical Dispersion Energy =           0.0000000000000000
    VV10 Nonlocal Energy =                  0.0000000000000000
    Total Energy =                       -109.5487986678339070

  UHF NO Occupations:
  HONO-2 :    1B1u 2.0000000
  HONO-1 :    2B1u 2.0000000
  HONO-0 :    3 Ag 2.0000000
  LUNO+0 :    4 Ag 0.0000000
  LUNO+1 :    5 Ag 0.0000000
  LUNO+2 :    6 Ag 0.0000000
  LUNO+3 :    7 Ag 0.0000000

Computation Completed

Properties will be evaluated at   0.000000,   0.000000,   0.000000 [a0]

Properties computed using the B3LYP density matrix

 Multipole Moments:

 ------------------------------------------------------------------------------------
     Multipole            Electronic (a.u.)      Nuclear  (a.u.)        Total (a.u.)
 ------------------------------------------------------------------------------------

 L = 1.  Multiply by 2.5417464519 to convert [e a0] to [Debye]
 Dipole X            :          0.0000000            0.0000000            0.0000000
 Dipole Y            :          0.0000000            0.0000000            0.0000000
 Dipole Z            :          0.0000000            0.0000000            0.0000000
 Magnitude           :                                                    0.0000000

 L = 2.  Multiply by 1.3450342976 to convert [e a0^2] to [Debye ang]
 Quadrupole XX       :         -7.3445475            0.0000000           -7.3445475
 Quadrupole XY       :          0.0000000            0.0000000            0.0000000
 Quadrupole XZ       :          0.0000000            0.0000000            0.0000000
 Quadrupole YY       :         -7.3445475            0.0000000           -7.3445475
 Quadrupole YZ       :          0.0000000            0.0000000            0.0000000
 Quadrupole ZZ       :        -21.5832556           12.8917796           -8.6914759
 Traceless XX        :          4.7462360           -4.2972599            0.4489761
 Traceless YY        :          4.7462360           -4.2972599            0.4489761
 Traceless ZZ        :         -9.4924720            8.5945198           -0.8979523

 ------------------------------------------------------------------------------------
  ==> Computing MBIS Charges <==

  Electron Count from Grid (Expected Number): 14.00000 (14.00000)
  Difference: -0.00000

  MBIS Charges: (a.u.)
   Center  Symbol  Z      Pop.       Charge
      1       N    7    7.000000    0.000000
      2       N    7    7.000000    0.000000

  MBIS Dipoles: [e a0]
   Center  Symbol  Z        X           Y           Z
      1       N    7   -0.000000   -0.000000    0.082877
      2       N    7   -0.000000    0.000000   -0.082877

  MBIS Quadrupoles: [e a0^2]
   Center  Symbol  Z      XX        XY        XZ        YY        YZ        ZZ
      1       N    7   -3.6723    0.0000   -0.0000   -3.6723    0.0000   -4.1867
      2       N    7   -3.6723    0.0000    0.0000   -3.6723   -0.0000   -4.1867

  MBIS Octupoles: [e a0^3]
   Center  Symbol  Z      XXX       XXY       XXZ       XYY       XYZ       XZZ       YYY       YYZ       YZZ       ZZZ
      1       N    7   -0.0000   -0.0000    0.0929    0.0000    0.0000    0.0000   -0.0000    0.0929   -0.0000    0.3148
      2       N    7   -0.0000   -0.0000   -0.0929   -0.0000   -0.0000    0.0000   -0.0000   -0.0929   -0.0000   -0.3148

  MBIS Radial Moments:
   Center  Symbol  Z      [a0^2]      [a0^3]      [a0^4]
      1       N    7   11.531227   23.559636   57.520462
      2       N    7   11.531227   23.559636   57.520462

  MBIS Valence Widths: [a0]
   Center  Symbol  Z     Width
      1       N    7    0.425467
      2       N    7    0.425467

*** tstop() called on Mac.lan at Sun Aug 10 17:05:42 2025
Module time:
	user time   =       3.96 seconds =       0.07 minutes
	system time =       1.90 seconds =       0.03 minutes
	total time  =          0 seconds =       0.00 minutes
Total time:
	user time   =      17.03 seconds =       0.28 minutes
	system time =       4.02 seconds =       0.07 minutes
	total time  =          2 seconds =       0.03 minutes

    Psi4 stopped on: Sunday, 10 August 2025 05:05PM
    Psi4 wall time for execution: 0:00:02.05

*** Psi4 exiting successfully. Buy a developer a beer!
