                               Psi4 1.9.1 release

  ==> Input File <==

--------------------------------------------------------------------------
molecule {
0 1
N           0.000000           0.000000           0.000000
N           0.000000           0.000000           1.256139
}

set {
basis              cc-pvtz
reference          uks
maxiter            500
DAMPING_PERCENTAGE 1
E_CONVERGENCE      1.0E-8
D_CONVERGENCE      1.0E-8
DIIS_MAX_VECS      400
MBIS_MAXITER       8000
guess              read
}

E, wfn = energy('b3lyp', restart_file='last_wfn', return_wfn=True)
properties('b3lyp','MBIS_CHARGES', wfn=wfn)
wfn.to_file('last_wfn')
--------------------------------------------------------------------------

    Molecular point group: d2h
  Charge       = 0
  Multiplicity = 1
  Basis Set: CC-PVTZ
    Blend: CC-PVTZ
  Basis Set: (CC-PVTZ AUX)
    Blend: CC-PVTZ-JKFIT
  @DF-UKS Final Energy:  -109.51533916843428
    Total Energy =                       -109.5153391684342807
 Dipole X            :          0.0000000            0.0000000            0.0000000
 Dipole Y            :          0.0000000            0.0000000            0.0000000
 Dipole Z            :          0.0000000           -0.0000000           -0.0000000
 Magnitude           :                                                    0.0000000
    Molecular point group: d2h

    Geometry (in Angstrom), charge = 0, multiplicity = 1:

       Center              X                  Y                   Z               Mass
    ------------   -----------------  -----------------  -----------------  -----------------
         N            0.000000000000     0.000000000000    -0.628069500000    14.003074004430
         N            0.000000000000     0.000000000000     0.628069500000    14.003074004430

  Charge       = 0
  Multiplicity = 1
  Basis Set: CC-PVTZ
    Blend: CC-PVTZ
  Basis Set: (CC-PVTZ AUX)
    Blend: CC-PVTZ-JKFIT

    Orbital Energies [Eh]
    ---------------------

    Alpha Occupied:

       1Ag   -14.460148     1B1u  -14.459590     2Ag    -1.039809
       2B1u   -0.596825     3Ag    -0.426308     1B2u   -0.425489
       1B3u   -0.425489

    Alpha Virtual:

       1B3g   -0.092422     1B2g   -0.092422     3B1u    0.248738
       2B3u    0.405787     2B2u    0.405787     4Ag     0.427203
       5Ag     0.481943     4B1u    0.496683     2B3g    0.515873
       2B2g    0.515873     5B1u    0.849177     1B1g    0.849261
       6Ag     0.849261     3B2u    1.003332     3B3u    1.003332
       1Au     1.210502     6B1u    1.210502     3B2g    1.641966
       3B3g    1.641966     7Ag     1.652090     7B1u    1.693569
       4B2u    2.719421     4B3u    2.719421     8Ag     2.851987
       4B2g    2.960865     4B3g    2.960865     2B1g    3.446943
       9Ag     3.446943     5B3u    3.516793     5B2u    3.516793
       8B1u    3.526946     6B2u    3.680004     6B3u    3.680004
      10Ag     3.762142     5B3g    3.973125     5B2g    3.973125
       9B1u    4.299685     3B1g    4.331771    11Ag     4.331772
       2Au     4.401561    10B1u    4.401562     6B2g    4.574422
       6B3g    4.574422     3Au     4.646489    11B1u    4.646491
       7B3u    4.777316     7B2u    4.777316    12B1u    5.229164
      12Ag     5.329059    13Ag     5.667843     7B2g    5.797355
       7B3g    5.797355    13B1u   11.345793

    Beta Occupied:

       1Ag   -14.460148     1B1u  -14.459590     2Ag    -1.039809
       2B1u   -0.596825     3Ag    -0.426308     1B2u   -0.425489
       1B3u   -0.425489

    Beta Virtual:

       1B3g   -0.092422     1B2g   -0.092422     3B1u    0.248738
       2B3u    0.405787     2B2u    0.405787     4Ag     0.427203
       5Ag     0.481943     4B1u    0.496683     2B3g    0.515873
       2B2g    0.515873     5B1u    0.849177     1B1g    0.849261
       6Ag     0.849261     3B2u    1.003332     3B3u    1.003332
       1Au     1.210502     6B1u    1.210502     3B2g    1.641966
       3B3g    1.641966     7Ag     1.652090     7B1u    1.693569
       4B2u    2.719421     4B3u    2.719421     8Ag     2.851987
       4B2g    2.960865     4B3g    2.960865     2B1g    3.446943
       9Ag     3.446943     5B3u    3.516793     5B2u    3.516793
       8B1u    3.526946     6B2u    3.680004     6B3u    3.680004
      10Ag     3.762142     5B3g    3.973125     5B2g    3.973125
       9B1u    4.299685     3B1g    4.331771    11Ag     4.331772
       2Au     4.401561    10B1u    4.401562     6B2g    4.574422
       6B3g    4.574422     3Au     4.646489    11B1u    4.646491
       7B3u    4.777316     7B2u    4.777316    12B1u    5.229164
      12Ag     5.329059    13Ag     5.667843     7B2g    5.797355
       7B3g    5.797355    13B1u   11.345793

    Final Occupation by Irrep:
             Ag   B1g   B2g   B3g    Au   B1u   B2u   B3u
    DOCC [     3,    0,    0,    0,    0,    2,    1,    1 ]
    SOCC [     0,    0,    0,    0,    0,    0,    0,    0 ]
    NA   [     3,    0,    0,    0,    0,    2,    1,    1 ]
    NB   [     3,    0,    0,    0,    0,    2,    1,    1 ]

  @DF-UKS Final Energy:  -109.51533916868721

   => Energetics <=

    Nuclear Repulsion Energy =             20.6423678612239634
    One-Electron Energy =                -188.7683820666600241
    Two-Electron Energy =                  69.5566608133048874
    DFT Exchange-Correlation Energy =     -10.9459857765560340
    Empirical Dispersion Energy =           0.0000000000000000
    VV10 Nonlocal Energy =                  0.0000000000000000
    Total Energy =                       -109.5153391686872055

  UHF NO Occupations:
  HONO-2 :    3 Ag 2.0000000
  HONO-1 :    2B1u 2.0000000
  HONO-0 :    1B2u 2.0000000
  LUNO+0 :    3B1u 0.0000000
  LUNO+1 :    4 Ag 0.0000000
  LUNO+2 :    4B1u 0.0000000
  LUNO+3 :    5 Ag 0.0000000

Computation Completed

Properties will be evaluated at   0.000000,   0.000000,   0.000000 [a0]

Properties computed using the B3LYP density matrix

 Multipole Moments:

 ------------------------------------------------------------------------------------
     Multipole            Electronic (a.u.)      Nuclear  (a.u.)        Total (a.u.)
 ------------------------------------------------------------------------------------

 L = 1.  Multiply by 2.5417464519 to convert [e a0] to [Debye]
 Dipole X            :          0.0000000            0.0000000            0.0000000
 Dipole Y            :          0.0000000            0.0000000            0.0000000
 Dipole Z            :          0.0000000           -0.0000000           -0.0000000
 Magnitude           :                                                    0.0000000

 L = 2.  Multiply by 1.3450342976 to convert [e a0^2] to [Debye ang]
 Quadrupole XX       :         -7.8678654            0.0000000           -7.8678654
 Quadrupole XY       :          0.0000000            0.0000000            0.0000000
 Quadrupole XZ       :          0.0000000            0.0000000            0.0000000
 Quadrupole YY       :         -7.8678654            0.0000000           -7.8678654
 Quadrupole YZ       :          0.0000000            0.0000000            0.0000000
 Quadrupole ZZ       :        -28.4378309           19.7215560           -8.7162748
 Traceless XX        :          6.8566552           -6.5738520            0.2828032
 Traceless YY        :          6.8566552           -6.5738520            0.2828032
 Traceless ZZ        :        -13.7133103           13.1477040           -0.5656063

 ------------------------------------------------------------------------------------
  ==> Computing MBIS Charges <==

  Electron Count from Grid (Expected Number): 14.00000 (14.00000)
  Difference:  0.00000

  MBIS Charges: (a.u.)
   Center  Symbol  Z      Pop.       Charge
      1       N    7    7.000000   -0.000000
      2       N    7    7.000000   -0.000000

  MBIS Dipoles: [e a0]
   Center  Symbol  Z        X           Y           Z
      1       N    7   -0.000000   -0.000000    0.024748
      2       N    7    0.000000   -0.000000   -0.024748

  MBIS Quadrupoles: [e a0^2]
   Center  Symbol  Z      XX        XY        XZ        YY        YZ        ZZ
      1       N    7   -3.9339    0.0000   -0.0000   -3.9339    0.0000   -4.2994
      2       N    7   -3.9339   -0.0000    0.0000   -3.9339   -0.0000   -4.2994

  MBIS Octupoles: [e a0^3]
   Center  Symbol  Z      XXX       XXY       XXZ       XYY       XYZ       XZZ       YYY       YYZ       YZZ       ZZZ
      1       N    7    0.0000   -0.0000   -0.0552   -0.0000    0.0000    0.0000   -0.0000   -0.0552   -0.0000   -0.0723
      2       N    7   -0.0000   -0.0000    0.0552   -0.0000   -0.0000    0.0000   -0.0000    0.0552   -0.0000    0.0723

  MBIS Radial Moments:
   Center  Symbol  Z      [a0^2]      [a0^3]      [a0^4]
      1       N    7   12.167258   25.474929   63.553717
      2       N    7   12.167258   25.474929   63.553717

  MBIS Valence Widths: [a0]
   Center  Symbol  Z     Width
      1       N    7    0.438548
      2       N    7    0.438548

*** tstop() called on Mac.lan at Sun Aug 10 17:06:44 2025
Module time:
	user time   =       4.05 seconds =       0.07 minutes
	system time =       2.09 seconds =       0.03 minutes
	total time  =          1 seconds =       0.02 minutes
Total time:
	user time   =      14.65 seconds =       0.24 minutes
	system time =       4.33 seconds =       0.07 minutes
	total time  =          2 seconds =       0.03 minutes

    Psi4 stopped on: Sunday, 10 August 2025 05:06PM
    Psi4 wall time for execution: 0:00:01.85

*** Psi4 exiting successfully. Buy a developer a beer!
