                               Psi4 1.9.1 release

  ==> Input File <==

--------------------------------------------------------------------------
molecule {
0 2
O           0.000000           0.000000           0.000000
H           0.000000           0.000000           1.211295
}

set {
basis              cc-pvtz
reference          uks
maxiter            500
DAMPING_PERCENTAGE 1
E_CONVERGENCE      1.0E-8
D_CONVERGENCE      1.0E-8
DIIS_MAX_VECS      400
MBIS_MAXITER       8000
guess              read
}

E, wfn = energy('b3lyp', restart_file='last_wfn', return_wfn=True)
properties('b3lyp','MBIS_CHARGES', wfn=wfn)
wfn.to_file('last_wfn')
--------------------------------------------------------------------------

    Molecular point group: c2v
  Charge       = 0
  Multiplicity = 2
  Basis Set: CC-PVTZ
    Blend: CC-PVTZ
  Basis Set: (CC-PVTZ AUX)
    Blend: CC-PVTZ-JKFIT
  @DF-UKS Final Energy:   -75.73422095930385
    Total Energy =                        -75.7342209593038547
 Dipole X            :          0.0000000            0.0000000            0.0000000
 Dipole Y            :          0.0000000            0.0000000            0.0000000
 Dipole Z            :         -0.3735214            1.0678981            0.6943767
 Magnitude           :                                                    0.6943767
    Molecular point group: c2v

    Geometry (in Angstrom), charge = 0, multiplicity = 2:

       Center              X                  Y                   Z               Mass
    ------------   -----------------  -----------------  -----------------  -----------------
         O            0.000000000000     0.000000000000    -0.071798630539    15.994914619570
         H            0.000000000000     0.000000000000     1.139496369461     1.007825032230

  Charge       = 0
  Multiplicity = 2
  Basis Set: CC-PVTZ
    Blend: CC-PVTZ
  Basis Set: (CC-PVTZ AUX)
    Blend: CC-PVTZ-JKFIT

    Orbital Energies [Eh]
    ---------------------

    Alpha Occupied:

       1A1   -19.210280     2A1    -0.972974     3A1    -0.443222
       1B1    -0.409897     1B2    -0.336533

    Alpha Virtual:

       4A1    -0.029855     5A1     0.277274     2B1     0.510300
       2B2     0.541370     6A1     0.549697     3B1     0.675547
       3B2     0.691721     7A1     0.889383     8A1     1.074882
       1A2     1.429860     9A1     1.430602     4B1     1.610479
       4B2     1.648359    10A1     2.063672    11A1     2.296395
       2A2     3.150612    12A1     3.150684     5B1     3.221989
       5B2     3.251863    13A1     3.331428     6B1     3.618540
       6B2     3.639263     7B1     3.767462     7B2     3.805564
      14A1     3.865552    15A1     4.777869     8B1     5.076121
       8B2     5.076377     3A2     5.152055    16A1     5.153878
       9B1     5.647502     9B2     5.696035    17A1     6.028344
      18A1     6.128219     4A2     6.128736    10B1     6.394676
      10B2     6.451319    19A1     6.832327    20A1     8.304900

    Beta Occupied:

       1A1   -19.183930     2A1    -0.896253     3A1    -0.421222
       1B2    -0.310317

    Beta Virtual:

       1B1    -0.161071     4A1    -0.021284     5A1     0.277012
       2B2     0.548217     6A1     0.560899     2B1     0.569157
       3B2     0.691170     3B1     0.696520     7A1     0.918302
       8A1     1.083751     1A2     1.482204     9A1     1.488244
       4B2     1.654971     4B1     1.661718    10A1     2.085010
      11A1     2.286367     2A2     3.146041    12A1     3.146332
       5B2     3.254180     5B1     3.264578    13A1     3.339502
       6B2     3.633893     6B1     3.638207     7B2     3.814536
       7B1     3.830888    14A1     3.870751    15A1     4.802022
       8B2     5.146439     8B1     5.149442     3A2     5.199396
      16A1     5.204582     9B2     5.706433     9B1     5.714718
      17A1     6.055094     4A2     6.221811    18A1     6.236286
      10B2     6.465818    10B1     6.485718    19A1     6.874822
      20A1     8.342070

    Final Occupation by Irrep:
             A1    A2    B1    B2
    DOCC [     3,    0,    0,    1 ]
    SOCC [     0,    0,    1,    0 ]
    NA   [     3,    0,    1,    1 ]
    NB   [     3,    0,    0,    1 ]

  @DF-UKS Final Energy:   -75.73422096102605

   => Energetics <=

    Nuclear Repulsion Energy =              3.4949518369678740
    One-Electron Energy =                -111.1530302635527931
    Two-Electron Energy =                  39.0455513905859917
    DFT Exchange-Correlation Energy =      -7.1216939250271212
    Empirical Dispersion Energy =           0.0000000000000000
    VV10 Nonlocal Energy =                  0.0000000000000000
    Total Energy =                        -75.7342209610260539

  UHF NO Occupations:
  HONO-2 :    2 A1 1.9994776
  HONO-1 :    3 A1 1.9985148
  HONO-0 :    1 B1 1.0000000
  LUNO+0 :    4 A1 0.0014852
  LUNO+1 :    5 A1 0.0005224
  LUNO+2 :    2 B2 0.0001692
  LUNO+3 :    6 A1 0.0000006

Computation Completed

Properties will be evaluated at   0.000000,   0.000000,   0.000000 [a0]

Properties computed using the B3LYP density matrix

 Multipole Moments:

 ------------------------------------------------------------------------------------
     Multipole            Electronic (a.u.)      Nuclear  (a.u.)        Total (a.u.)
 ------------------------------------------------------------------------------------

 L = 1.  Multiply by 2.5417464519 to convert [e a0] to [Debye]
 Dipole X            :          0.0000000            0.0000000            0.0000000
 Dipole Y            :          0.0000000            0.0000000            0.0000000
 Dipole Z            :         -0.3735214            1.0678981            0.6943767
 Magnitude           :                                                    0.6943767

 L = 2.  Multiply by 1.3450342976 to convert [e a0^2] to [Debye ang]
 Quadrupole XX       :         -4.1725634            0.0000000           -4.1725634
 Quadrupole XY       :          0.0000000            0.0000000            0.0000000
 Quadrupole XZ       :          0.0000000            0.0000000            0.0000000
 Quadrupole YY       :         -5.0711602            0.0000000           -5.0711602
 Quadrupole YZ       :          0.0000000            0.0000000            0.0000000
 Quadrupole ZZ       :         -7.6737602            4.7841281           -2.8896321
 Traceless XX        :          1.4665979           -1.5947094           -0.1281115
 Traceless YY        :          0.5680011           -1.5947094           -1.0267083
 Traceless ZZ        :         -2.0345990            3.1894188            1.1548198

 ------------------------------------------------------------------------------------
  ==> Computing MBIS Charges <==

  Electron Count from Grid (Expected Number):  9.00000 ( 9.00000)
  Difference:  0.00000

  MBIS Charges: (a.u.)
   Center  Symbol  Z      Pop.       Charge
      1       O    8    8.328498   -0.328498
      2       H    1    0.671502    0.328498

  MBIS Dipoles: [e a0]
   Center  Symbol  Z        X           Y           Z
      1       O    8   -0.000000   -0.000000   -0.107471
      2       H    1    0.000000    0.000000    0.049911

  MBIS Quadrupoles: [e a0^2]
   Center  Symbol  Z      XX        XY        XZ        YY        YZ        ZZ
      1       O    8   -3.7340   -0.0000   -0.0000   -4.5910   -0.0000   -4.2214
      2       H    1   -0.4385    0.0000    0.0000   -0.4801    0.0000   -0.4295

  MBIS Octupoles: [e a0^3]
   Center  Symbol  Z      XXX       XXY       XXZ       XYY       XYZ       XZZ       YYY       YYZ       YZZ       ZZZ
      1       O    8   -0.0000   -0.0000   -0.1327    0.0000    0.0000    0.0000   -0.0000   -0.1252   -0.0000   -0.5354
      2       H    1    0.0000    0.0000    0.0005    0.0000    0.0000    0.0000   -0.0000    0.0305   -0.0000    0.0596

  MBIS Radial Moments:
   Center  Symbol  Z      [a0^2]      [a0^3]      [a0^4]
      1       O    8   12.546463   24.266508   56.090037
      2       H    1    1.348154    2.736188    6.643416

  MBIS Valence Widths: [a0]
   Center  Symbol  Z     Width
      1       O    8    0.397125
      2       H    1    0.410692

*** tstop() called on Mac.lan at Sun Aug 10 17:11:36 2025
Module time:
	user time   =       2.71 seconds =       0.05 minutes
	system time =       2.22 seconds =       0.04 minutes
	total time  =          1 seconds =       0.02 minutes
Total time:
	user time   =      12.15 seconds =       0.20 minutes
	system time =       4.56 seconds =       0.08 minutes
	total time  =          2 seconds =       0.03 minutes

    Psi4 stopped on: Sunday, 10 August 2025 05:11PM
    Psi4 wall time for execution: 0:00:01.63

*** Psi4 exiting successfully. Buy a developer a beer!
