                               Psi4 1.9.1 release

  ==> Input File <==

--------------------------------------------------------------------------
molecule {
0 2
O           0.000000           0.000000           0.000000
H           0.000000           0.000000           1.408205
}

set {
basis              cc-pvtz
reference          uks
maxiter            500
DAMPING_PERCENTAGE 1
E_CONVERGENCE      1.0E-8
D_CONVERGENCE      1.0E-8
DIIS_MAX_VECS      400
MBIS_MAXITER       8000
guess              read
}

E, wfn = energy('b3lyp', restart_file='last_wfn', return_wfn=True)
properties('b3lyp','MBIS_CHARGES', wfn=wfn)
wfn.to_file('last_wfn')
--------------------------------------------------------------------------

    Molecular point group: c2v
  Charge       = 0
  Multiplicity = 2
  Basis Set: CC-PVTZ
    Blend: CC-PVTZ
  Basis Set: (CC-PVTZ AUX)
    Blend: CC-PVTZ-JKFIT
  @DF-UKS Final Energy:   -75.69352956890745
    Total Energy =                        -75.6935295689074508
 Dipole X            :          0.0000000            0.0000000            0.0000000
 Dipole Y            :          0.0000000            0.0000000            0.0000000
 Dipole Z            :         -0.5377808            1.2414972            0.7037164
 Magnitude           :                                                    0.7037164
    Molecular point group: c2v

    Geometry (in Angstrom), charge = 0, multiplicity = 2:

       Center              X                  Y                   Z               Mass
    ------------   -----------------  -----------------  -----------------  -----------------
         O            0.000000000000     0.000000000000    -0.083470327640    15.994914619570
         H            0.000000000000     0.000000000000     1.324734672360     1.007825032230

  Charge       = 0
  Multiplicity = 2
  Basis Set: CC-PVTZ
    Blend: CC-PVTZ
  Basis Set: (CC-PVTZ AUX)
    Blend: CC-PVTZ-JKFIT

    Orbital Energies [Eh]
    ---------------------

    Alpha Occupied:

       1A1   -19.218707     2A1    -0.958515     3A1    -0.419495
       1B1    -0.408685     1B2    -0.334763

    Alpha Virtual:

       4A1    -0.083014     5A1     0.251028     2B1     0.497336
       2B2     0.524397     6A1     0.571945     3B1     0.672412
       3B2     0.689442     7A1     0.805809     8A1     1.046976
       1A2     1.437072     9A1     1.437855     4B1     1.526936
       4B2     1.564786    10A1     1.959133    11A1     2.354179
      12A1     3.123234     2A2     3.153528    13A1     3.153576
       5B1     3.212941     5B2     3.232048     6B1     3.584234
       6B2     3.622528     7B1     3.628796     7B2     3.651525
      14A1     3.787898    15A1     4.576504     8B1     5.077548
       8B2     5.077918     3A2     5.093756    16A1     5.094845
       9B1     5.314944     9B2     5.363889    17A1     5.735295
      18A1     6.117585     4A2     6.117953    10B1     6.283894
      10B2     6.343046    19A1     6.926003    20A1     7.510029

    Beta Occupied:

       1A1   -19.190346     2A1    -0.874239     3A1    -0.397360
       1B2    -0.306812

    Beta Virtual:

       1B1    -0.156707     4A1    -0.076180     5A1     0.242876
       2B2     0.526128     2B1     0.542549     6A1     0.588221
       3B2     0.687440     3B1     0.697053     7A1     0.821449
       8A1     1.065125     1A2     1.490033     9A1     1.496181
       4B2     1.573520     4B1     1.581301    10A1     1.973885
      11A1     2.334601    12A1     3.132474     2A2     3.134949
      13A1     3.135099     5B2     3.223435     5B1     3.227742
       6B1     3.599291     6B2     3.600016     7B2     3.664874
       7B1     3.693268    14A1     3.779633    15A1     4.593755
       3A2     5.145044     8B2     5.148633    16A1     5.150484
       8B1     5.151640     9B2     5.377576     9B1     5.383647
      17A1     5.769024     4A2     6.212242    18A1     6.227132
      10B2     6.365148    10B1     6.389631    19A1     6.966273
      20A1     7.563265

    Final Occupation by Irrep:
             A1    A2    B1    B2
    DOCC [     3,    0,    0,    1 ]
    SOCC [     0,    0,    1,    0 ]
    NA   [     3,    0,    1,    1 ]
    NB   [     3,    0,    0,    1 ]

  @DF-UKS Final Energy:   -75.69352956853538

   => Energetics <=

    Nuclear Repulsion Energy =              3.0062509970920437
    One-Electron Energy =                -110.1952521505004938
    Two-Electron Energy =                  38.5800979587238189
    DFT Exchange-Correlation Energy =      -7.0846263738507522
    Empirical Dispersion Energy =           0.0000000000000000
    VV10 Nonlocal Energy =                  0.0000000000000000
    Total Energy =                        -75.6935295685353964

  UHF NO Occupations:
  HONO-2 :    2 A1 1.9994561
  HONO-1 :    3 A1 1.9922369
  HONO-0 :    1 B1 1.0000000
  LUNO+0 :    4 A1 0.0077631
  LUNO+1 :    5 A1 0.0005439
  LUNO+2 :    2 B2 0.0001916
  LUNO+3 :    6 A1 0.0000006

Computation Completed

Properties will be evaluated at   0.000000,   0.000000,   0.000000 [a0]

Properties computed using the B3LYP density matrix

 Multipole Moments:

 ------------------------------------------------------------------------------------
     Multipole            Electronic (a.u.)      Nuclear  (a.u.)        Total (a.u.)
 ------------------------------------------------------------------------------------

 L = 1.  Multiply by 2.5417464519 to convert [e a0] to [Debye]
 Dipole X            :          0.0000000            0.0000000            0.0000000
 Dipole Y            :          0.0000000            0.0000000            0.0000000
 Dipole Z            :         -0.5377808            1.2414972            0.7037164
 Magnitude           :                                                    0.7037164

 L = 2.  Multiply by 1.3450342976 to convert [e a0^2] to [Debye ang]
 Quadrupole XX       :         -4.2888564            0.0000000           -4.2888564
 Quadrupole XY       :          0.0000000            0.0000000            0.0000000
 Quadrupole XZ       :          0.0000000            0.0000000            0.0000000
 Quadrupole YY       :         -5.1864147            0.0000000           -5.1864147
 Quadrupole YZ       :          0.0000000            0.0000000            0.0000000
 Quadrupole ZZ       :         -9.0295373            6.4659854           -2.5635519
 Traceless XX        :          1.8794131           -2.1553285           -0.2759154
 Traceless YY        :          0.9818548           -2.1553285           -1.1734737
 Traceless ZZ        :         -2.8612678            4.3106569            1.4493891

 ------------------------------------------------------------------------------------
  ==> Computing MBIS Charges <==

  Electron Count from Grid (Expected Number):  9.00000 ( 9.00000)
  Difference: -0.00000

  MBIS Charges: (a.u.)
   Center  Symbol  Z      Pop.       Charge
      1       O    8    8.287256   -0.287256
      2       H    1    0.712744    0.287256

  MBIS Dipoles: [e a0]
   Center  Symbol  Z        X           Y           Z
      1       O    8    0.000000   -0.000000   -0.128750
      2       H    1    0.000000   -0.000000    0.068043

  MBIS Quadrupoles: [e a0^2]
   Center  Symbol  Z      XX        XY        XZ        YY        YZ        ZZ
      1       O    8   -3.7370    0.0000    0.0000   -4.5954    0.0000   -4.2059
      2       H    1   -0.5519    0.0000    0.0000   -0.5911   -0.0000   -0.5320

  MBIS Octupoles: [e a0^3]
   Center  Symbol  Z      XXX       XXY       XXZ       XYY       XYZ       XZZ       YYY       YYZ       YZZ       ZZZ
      1       O    8   -0.0000   -0.0000   -0.1759    0.0000    0.0000    0.0000   -0.0000   -0.1559   -0.0000   -0.6596
      2       H    1    0.0000    0.0000    0.0171    0.0000    0.0000    0.0000    0.0000    0.0572   -0.0000    0.0980

  MBIS Radial Moments:
   Center  Symbol  Z      [a0^2]      [a0^3]      [a0^4]
      1       O    8   12.538260   24.359963   56.552443
      2       H    1    1.674927    3.669515    9.607220

  MBIS Valence Widths: [a0]
   Center  Symbol  Z     Width
      1       O    8    0.398131
      2       H    1    0.444693

*** tstop() called on Mac.lan at Sun Aug 10 17:12:01 2025
Module time:
	user time   =       3.46 seconds =       0.06 minutes
	system time =       1.89 seconds =       0.03 minutes
	total time  =          1 seconds =       0.02 minutes
Total time:
	user time   =      17.75 seconds =       0.30 minutes
	system time =       4.04 seconds =       0.07 minutes
	total time  =          3 seconds =       0.05 minutes

    Psi4 stopped on: Sunday, 10 August 2025 05:12PM
    Psi4 wall time for execution: 0:00:02.16

*** Psi4 exiting successfully. Buy a developer a beer!
