                               Psi4 1.9.1 release

  ==> Input File <==

--------------------------------------------------------------------------
molecule {
0 2
O           0.000000           0.000000           0.000000
H           0.000000           0.000000           0.817475
}

set {
basis              cc-pvtz
reference          uks
maxiter            500
DAMPING_PERCENTAGE 1
E_CONVERGENCE      1.0E-8
D_CONVERGENCE      1.0E-8
DIIS_MAX_VECS      400
MBIS_MAXITER       8000
guess              read
}

E, wfn = energy('b3lyp', restart_file='last_wfn', return_wfn=True)
properties('b3lyp','MBIS_CHARGES', wfn=wfn)
wfn.to_file('last_wfn')
--------------------------------------------------------------------------

    Molecular point group: c2v
  Charge       = 0
  Multiplicity = 2
  Basis Set: CC-PVTZ
    Blend: CC-PVTZ
  Basis Set: (CC-PVTZ AUX)
    Blend: CC-PVTZ-JKFIT
  @DF-UKS Final Energy:   -75.73229198767895
    Total Energy =                        -75.7322919876789626
 Dipole X            :          0.0000000            0.0000000            0.0000000
 Dipole Y            :          0.0000000            0.0000000            0.0000000
 Dipole Z            :         -0.0878075            0.7206997            0.6328922
 Magnitude           :                                                    0.6328922
    Molecular point group: c2v

    Geometry (in Angstrom), charge = 0, multiplicity = 2:

       Center              X                  Y                   Z               Mass
    ------------   -----------------  -----------------  -----------------  -----------------
         O            0.000000000000     0.000000000000    -0.048455236338    15.994914619570
         H            0.000000000000     0.000000000000     0.769019763662     1.007825032230

  Charge       = 0
  Multiplicity = 2
  Basis Set: CC-PVTZ
    Blend: CC-PVTZ
  Basis Set: (CC-PVTZ AUX)
    Blend: CC-PVTZ-JKFIT

    Orbital Energies [Eh]
    ---------------------

    Alpha Occupied:

       1A1   -19.184426     2A1    -1.071679     3A1    -0.500837
       1B1    -0.425498     1B2    -0.352657

    Alpha Virtual:

       4A1     0.051705     5A1     0.459255     6A1     0.507244
       2B1     0.527925     2B2     0.563165     3B1     0.712389
       3B2     0.730711     7A1     0.826613     8A1     1.411638
       1A2     1.413921     9A1     1.458287     4B1     1.788464
       4B2     1.826708    10A1     1.836440    11A1     2.554762
       2A2     3.249592    12A1     3.249752     5B1     3.377746
       5B2     3.410369     6B1     3.584959     6B2     3.628686
      13A1     3.833361     7B1     4.193158     7B2     4.224160
      14A1     4.490541     8B1     5.060855     8B2     5.061122
      15A1     5.075387     3A2     5.552642    16A1     5.553484
       4A2     6.127742    17A1     6.128141     9B1     6.284418
       9B2     6.340464    18A1     6.841323    10B1     7.178938
      10B2     7.224148    19A1     7.282626    20A1    11.754138

    Beta Occupied:

       1A1   -19.159433     2A1    -1.005010     3A1    -0.471854
       1B2    -0.327206

    Beta Virtual:

       1B1    -0.178440     4A1     0.056899     5A1     0.467214
       6A1     0.514989     2B2     0.573480     2B1     0.599090
       3B2     0.731084     3B1     0.732715     7A1     0.851295
       1A2     1.466353     8A1     1.466959     9A1     1.477792
       4B2     1.832591     4B1     1.837240    10A1     1.854089
      11A1     2.563858     2A2     3.261346    12A1     3.262291
       5B2     3.414131     5B1     3.422879     6B2     3.641346
       6B1     3.663016    13A1     3.840183     7B2     4.227748
       7B1     4.229025    14A1     4.521879    15A1     5.106971
       8B2     5.131086     8B1     5.134047     3A2     5.597168
      16A1     5.602092     4A2     6.218963    17A1     6.233284
       9B2     6.351650     9B1     6.366462    18A1     6.864673
      10B2     7.231815    10B1     7.238948    19A1     7.304074
      20A1    11.785335

    Final Occupation by Irrep:
             A1    A2    B1    B2
    DOCC [     3,    0,    0,    1 ]
    SOCC [     0,    0,    1,    0 ]
    NA   [     3,    0,    1,    1 ]
    NB   [     3,    0,    0,    1 ]

  @DF-UKS Final Energy:   -75.73229198794347

   => Energetics <=

    Nuclear Repulsion Energy =              5.1786509500107041
    One-Electron Energy =                -114.1071419290014148
    Two-Electron Energy =                  40.4562025080811480
    DFT Exchange-Correlation Energy =      -7.2600035170339128
    Empirical Dispersion Energy =           0.0000000000000000
    VV10 Nonlocal Energy =                  0.0000000000000000
    Total Energy =                        -75.7322919879434693

  UHF NO Occupations:
  HONO-2 :    1 B2 1.9998532
  HONO-1 :    3 A1 1.9993554
  HONO-0 :    1 B1 1.0000000
  LUNO+0 :    4 A1 0.0006446
  LUNO+1 :    2 B2 0.0001468
  LUNO+2 :    5 A1 0.0001379
  LUNO+3 :    6 A1 0.0000006

Computation Completed

Properties will be evaluated at   0.000000,   0.000000,   0.000000 [a0]

Properties computed using the B3LYP density matrix

 Multipole Moments:

 ------------------------------------------------------------------------------------
     Multipole            Electronic (a.u.)      Nuclear  (a.u.)        Total (a.u.)
 ------------------------------------------------------------------------------------

 L = 1.  Multiply by 2.5417464519 to convert [e a0] to [Debye]
 Dipole X            :          0.0000000            0.0000000            0.0000000
 Dipole Y            :          0.0000000            0.0000000            0.0000000
 Dipole Z            :         -0.0878075            0.7206997            0.6328922
 Magnitude           :                                                    0.6328922

 L = 2.  Multiply by 1.3450342976 to convert [e a0^2] to [Debye ang]
 Quadrupole XX       :         -3.8900222            0.0000000           -3.8900222
 Quadrupole XY       :          0.0000000            0.0000000            0.0000000
 Quadrupole XZ       :          0.0000000            0.0000000            0.0000000
 Quadrupole YY       :         -4.7758526            0.0000000           -4.7758526
 Quadrupole YZ       :          0.0000000            0.0000000            0.0000000
 Quadrupole ZZ       :         -5.6480308            2.1789733           -3.4690575
 Traceless XX        :          0.8812797           -0.7263244            0.1549553
 Traceless YY        :         -0.0045507           -0.7263244           -0.7308752
 Traceless ZZ        :         -0.8767290            1.4526489            0.5759199

 ------------------------------------------------------------------------------------
  ==> Computing MBIS Charges <==

  Electron Count from Grid (Expected Number):  9.00000 ( 9.00000)
  Difference: -0.00000

  MBIS Charges: (a.u.)
   Center  Symbol  Z      Pop.       Charge
      1       O    8    8.413324   -0.413324
      2       H    1    0.586676    0.413324

  MBIS Dipoles: [e a0]
   Center  Symbol  Z        X           Y           Z
      1       O    8   -0.000000   -0.000000   -0.028673
      2       H    1   -0.000000    0.000000    0.023061

  MBIS Quadrupoles: [e a0^2]
   Center  Symbol  Z      XX        XY        XZ        YY        YZ        ZZ
      1       O    8   -3.6777    0.0000   -0.0000   -4.5347   -0.0000   -4.1852
      2       H    1   -0.2123    0.0000   -0.0000   -0.2411   -0.0000   -0.2256

  MBIS Octupoles: [e a0^3]
   Center  Symbol  Z      XXX       XXY       XXZ       XYY       XYZ       XZZ       YYY       YYZ       YZZ       ZZZ
      1       O    8   -0.0000   -0.0000    0.0198   -0.0000   -0.0000   -0.0000   -0.0000   -0.0177   -0.0000   -0.1941
      2       H    1   -0.0000    0.0000   -0.0021   -0.0000   -0.0000   -0.0000   -0.0000    0.0046   -0.0000    0.0050

  MBIS Radial Moments:
   Center  Symbol  Z      [a0^2]      [a0^3]      [a0^4]
      1       O    8   12.397590   23.687175   54.080733
      2       H    1    0.679052    1.052523    1.954310

  MBIS Valence Widths: [a0]
   Center  Symbol  Z     Width
      1       O    8    0.391708
      2       H    1    0.311305

*** tstop() called on Mac.lan at Sun Aug 10 17:10:40 2025
Module time:
	user time   =       3.15 seconds =       0.05 minutes
	system time =       2.25 seconds =       0.04 minutes
	total time  =          1 seconds =       0.02 minutes
Total time:
	user time   =      12.21 seconds =       0.20 minutes
	system time =       4.45 seconds =       0.07 minutes
	total time  =          2 seconds =       0.03 minutes

    Psi4 stopped on: Sunday, 10 August 2025 05:10PM
    Psi4 wall time for execution: 0:00:01.63

*** Psi4 exiting successfully. Buy a developer a beer!
