                               Psi4 1.9.1 release

  ==> Input File <==

--------------------------------------------------------------------------
molecule {
0 2
O           0.000000           0.000000           0.000000
N           0.000000           0.000000           1.382159
}

set {
basis              cc-pvtz
reference          uks
maxiter            500
DAMPING_PERCENTAGE 1
E_CONVERGENCE      1.0E-8
D_CONVERGENCE      1.0E-8
DIIS_MAX_VECS      400
MBIS_MAXITER       8000
guess              read
}

E, wfn = energy('b3lyp', restart_file='last_wfn', return_wfn=True)
properties('b3lyp','MBIS_CHARGES', wfn=wfn)
wfn.to_file('last_wfn')
--------------------------------------------------------------------------

    Molecular point group: c2v
  Charge       = 0
  Multiplicity = 2
  Basis Set: CC-PVTZ
    Blend: CC-PVTZ
  Basis Set: (CC-PVTZ AUX)
    Blend: CC-PVTZ-JKFIT
  @DF-UKS Final Energy:  -129.87594887564731
    Total Energy =                       -129.8759488756473104
 Dipole X            :          0.0000000            0.0000000            0.0000000
 Dipole Y            :          0.0000000            0.0000000            0.0000000
 Dipole Z            :          0.1883528           -0.0052407            0.1831122
 Magnitude           :                                                    0.1831122
    Molecular point group: c2v

    Geometry (in Angstrom), charge = 0, multiplicity = 2:

       Center              X                  Y                   Z               Mass
    ------------   -----------------  -----------------  -----------------  -----------------
         O            0.000000000000     0.000000000000    -0.645192416248    15.994914619570
         N            0.000000000000     0.000000000000     0.736966583752    14.003074004430

  Charge       = 0
  Multiplicity = 2
  Basis Set: CC-PVTZ
    Blend: CC-PVTZ
  Basis Set: (CC-PVTZ AUX)
    Blend: CC-PVTZ-JKFIT

    Orbital Energies [Eh]
    ---------------------

    Alpha Occupied:

       1A1   -19.271849     2A1   -14.508203     3A1    -1.103358
       4A1    -0.738573     1B1    -0.474091     5A1    -0.469994
       1B2    -0.439552     2B1    -0.291486

    Alpha Virtual:

       2B2    -0.182410     6A1     0.090463     7A1     0.395956
       3B1     0.416981     3B2     0.424912     8A1     0.471230
       9A1     0.563151     4B1     0.596172     4B2     0.603226
       1A2     0.938346    10A1     0.940040     5B2     1.018087
       5B1     1.019328    11A1     1.149907     2A2     1.473814
      12A1     1.474937    13A1     1.516474     6B1     1.865850
       6B2     1.866603    14A1     2.051055     7B1     2.748580
       7B2     2.765495    15A1     3.018935     8B1     3.437884
       8B2     3.447240     3A2     3.748361    16A1     3.750122
      17A1     3.775426     9B1     3.781402     9B2     3.781882
      10B1     3.969279    10B2     3.970306    18A1     4.277773
       4A2     4.308757    19A1     4.313685    11B1     4.559680
      11B2     4.568205    20A1     4.635137    12B1     5.053223
      12B2     5.053376     5A2     5.222450    21A1     5.223521
      22A1     5.399489    13B1     5.800805    13B2     5.801039
       6A2     6.134281    23A1     6.136871    24A1     6.339657
      14B1     6.584783    14B2     6.588365    25A1     7.356958
      26A1     9.202925

    Beta Occupied:

       1A1   -19.265736     2A1   -14.488801     3A1    -1.084075
       4A1    -0.693714     5A1    -0.452944     1B2    -0.436606
       1B1    -0.400687

    Beta Virtual:

       2B2    -0.163146     2B1    -0.121034     6A1     0.108924
       7A1     0.402691     3B2     0.436955     3B1     0.459356
       8A1     0.487321     9A1     0.568713     4B2     0.600443
       4B1     0.618387    10A1     0.973508     1A2     0.973511
       5B2     1.022676     5B1     1.047095    11A1     1.156806
       2A2     1.487827    12A1     1.487964    13A1     1.532020
       6B2     1.866825     6B1     1.890383    14A1     2.059424
       7B2     2.788989     7B1     2.826909    15A1     3.031947
       8B2     3.445240     8B1     3.476200    16A1     3.773613
       3A2     3.781878    17A1     3.805265     9B2     3.837833
       9B1     3.837941    10B2     3.976040    10B1     4.007123
      18A1     4.288136    19A1     4.388211     4A2     4.388873
      11B2     4.582716    11B1     4.618706    20A1     4.667423
      12B2     5.066883    12B1     5.066894    21A1     5.233239
       5A2     5.233707    22A1     5.413401    13B2     5.797798
      13B1     5.826270    23A1     6.156935     6A2     6.157324
      24A1     6.347152    14B2     6.582671    14B1     6.612200
      25A1     7.370120    26A1     9.217495

    Final Occupation by Irrep:
             A1    A2    B1    B2
    DOCC [     5,    0,    1,    1 ]
    SOCC [     0,    0,    1,    0 ]
    NA   [     5,    0,    2,    1 ]
    NB   [     5,    0,    1,    1 ]

  @DF-UKS Final Energy:  -129.87594886859063

   => Energetics <=

    Nuclear Repulsion Energy =             21.4403146074510964
    One-Electron Energy =                -219.6794730418385484
    Two-Electron Energy =                  80.6427764596794674
    DFT Exchange-Correlation Energy =     -12.2795668938826168
    Empirical Dispersion Energy =           0.0000000000000000
    VV10 Nonlocal Energy =                  0.0000000000000000
    Total Energy =                       -129.8759488685906263

  UHF NO Occupations:
  HONO-2 :    1 B1 1.9989153
  HONO-1 :    1 B2 1.9930947
  HONO-0 :    2 B1 1.0000000
  LUNO+0 :    2 B2 0.0069053
  LUNO+1 :    3 B1 0.0010847
  LUNO+2 :    6 A1 0.0006130
  LUNO+3 :    7 A1 0.0001171

Computation Completed

Properties will be evaluated at   0.000000,   0.000000,   0.000000 [a0]

Properties computed using the B3LYP density matrix

 Multipole Moments:

 ------------------------------------------------------------------------------------
     Multipole            Electronic (a.u.)      Nuclear  (a.u.)        Total (a.u.)
 ------------------------------------------------------------------------------------

 L = 1.  Multiply by 2.5417464519 to convert [e a0] to [Debye]
 Dipole X            :          0.0000000            0.0000000            0.0000000
 Dipole Y            :          0.0000000            0.0000000            0.0000000
 Dipole Z            :          0.1883526           -0.0052407            0.1831120
 Magnitude           :                                                    0.1831120

 L = 2.  Multiply by 1.3450342976 to convert [e a0^2] to [Debye ang]
 Quadrupole XX       :         -8.1778880            0.0000000           -8.1778880
 Quadrupole XY       :          0.0000000            0.0000000            0.0000000
 Quadrupole XZ       :          0.0000000            0.0000000            0.0000000
 Quadrupole YY       :         -7.4230070            0.0000000           -7.4230070
 Quadrupole YZ       :          0.0000000            0.0000000            0.0000000
 Quadrupole ZZ       :        -33.5868617           25.4689210           -8.1179407
 Traceless XX        :          8.2180309           -8.4896403           -0.2716094
 Traceless YY        :          8.9729119           -8.4896403            0.4832716
 Traceless ZZ        :        -17.1909428           16.9792806           -0.2116622

 ------------------------------------------------------------------------------------
  ==> Computing MBIS Charges <==

  Electron Count from Grid (Expected Number): 15.00000 (15.00000)
  Difference: -0.00000

  MBIS Charges: (a.u.)
   Center  Symbol  Z      Pop.       Charge
      1       O    8    8.117121   -0.117121
      2       N    7    6.882878    0.117122

  MBIS Dipoles: [e a0]
   Center  Symbol  Z        X           Y           Z
      1       O    8    0.000000    0.000000   -0.022485
      2       N    7    0.000000    0.000000   -0.100314

  MBIS Quadrupoles: [e a0^2]
   Center  Symbol  Z      XX        XY        XZ        YY        YZ        ZZ
      1       O    8   -4.0142    0.0000    0.0000   -3.7427   -0.0000   -3.8693
      2       N    7   -4.1637    0.0000    0.0000   -3.6803    0.0000   -4.0771

  MBIS Octupoles: [e a0^3]
   Center  Symbol  Z      XXX       XXY       XXZ       XYY       XYZ       XZZ       YYY       YYZ       YZZ       ZZZ
      1       O    8   -0.0000   -0.0000    0.0126    0.0000    0.0000   -0.0000    0.0000   -0.0529   -0.0000   -0.2642
      2       N    7   -0.0000   -0.0000   -0.0820    0.0000   -0.0000    0.0000   -0.0000    0.0798    0.0000    0.2056

  MBIS Radial Moments:
   Center  Symbol  Z      [a0^2]      [a0^3]      [a0^4]
      1       O    8   11.626167   21.945021   49.602281
      2       N    7   11.921145   25.048225   62.736215

  MBIS Valence Widths: [a0]
   Center  Symbol  Z     Width
      1       O    8    0.388287
      2       N    7    0.438915

*** tstop() called on Mac.lan at Sun Aug 10 17:21:01 2025
Module time:
	user time   =       4.06 seconds =       0.07 minutes
	system time =       2.09 seconds =       0.03 minutes
	total time  =          0 seconds =       0.00 minutes
Total time:
	user time   =      19.41 seconds =       0.32 minutes
	system time =       4.51 seconds =       0.08 minutes
	total time  =          2 seconds =       0.03 minutes

    Psi4 stopped on: Sunday, 10 August 2025 05:21PM
    Psi4 wall time for execution: 0:00:02.30

*** Psi4 exiting successfully. Buy a developer a beer!
