                               Psi4 1.9.1 release

  ==> Input File <==

--------------------------------------------------------------------------
molecule {
0 1
H           0.000000           0.000000           0.000000
H           0.000000           0.000000           0.704964
}

set {
basis              cc-pvtz
reference          uks
maxiter            500
DAMPING_PERCENTAGE 1
E_CONVERGENCE      1.0E-8
D_CONVERGENCE      1.0E-8
DIIS_MAX_VECS      400
MBIS_MAXITER       8000
guess              read
}

E, wfn = energy('b3lyp', restart_file='last_wfn', return_wfn=True)
properties('b3lyp','MBIS_CHARGES', wfn=wfn)
wfn.to_file('last_wfn')
--------------------------------------------------------------------------

    Molecular point group: d2h
  Charge       = 0
  Multiplicity = 1
  Basis Set: CC-PVTZ
    Blend: CC-PVTZ
  Basis Set: (CC-PVTZ AUX)
    Blend: CC-PVTZ-JKFIT
  @DF-UKS Final Energy:    -1.17896006515897
    Total Energy =                         -1.1789600651589733
 Dipole X            :          0.0000000            0.0000000            0.0000000
 Dipole Y            :          0.0000000            0.0000000            0.0000000
 Dipole Z            :          0.0000000            0.0000000            0.0000000
 Magnitude           :                                                    0.0000000
    Molecular point group: d2h

    Geometry (in Angstrom), charge = 0, multiplicity = 1:

       Center              X                  Y                   Z               Mass
    ------------   -----------------  -----------------  -----------------  -----------------
         H            0.000000000000     0.000000000000    -0.352482000000     1.007825032230
         H            0.000000000000     0.000000000000     0.352482000000     1.007825032230

  Charge       = 0
  Multiplicity = 1
  Basis Set: CC-PVTZ
    Blend: CC-PVTZ
  Basis Set: (CC-PVTZ AUX)
    Blend: CC-PVTZ-JKFIT

    Orbital Energies [Eh]
    ---------------------

    Alpha Occupied:

       1Ag    -0.442142

    Alpha Virtual:

       1B1u    0.065341     2Ag     0.193071     2B1u    0.485370
       1B2u    0.515103     1B3u    0.515103     3Ag     0.921799
       1B3g    0.944118     1B2g    0.944118     3B1u    1.379244
       4B1u    2.045164     4Ag     2.073274     5Ag     2.886149
       1B1g    2.886149     2B2u    3.097079     2B3u    3.097079
       6Ag     3.371936     2B3g    3.569515     2B2g    3.569515
       5B1u    3.832721     1Au     3.832721     3B3u    3.845087
       3B2u    3.845087     6B1u    4.468677     3B3g    5.534581
       3B2g    5.534581     7Ag     5.605024     7B1u    6.731754

    Beta Occupied:

       1Ag    -0.442142

    Beta Virtual:

       1B1u    0.065341     2Ag     0.193071     2B1u    0.485370
       1B2u    0.515103     1B3u    0.515103     3Ag     0.921799
       1B3g    0.944118     1B2g    0.944118     3B1u    1.379244
       4B1u    2.045164     4Ag     2.073274     5Ag     2.886149
       1B1g    2.886149     2B2u    3.097079     2B3u    3.097079
       6Ag     3.371936     2B3g    3.569515     2B2g    3.569515
       5B1u    3.832721     1Au     3.832721     3B3u    3.845087
       3B2u    3.845087     6B1u    4.468677     3B3g    5.534581
       3B2g    5.534581     7Ag     5.605024     7B1u    6.731754

    Final Occupation by Irrep:
             Ag   B1g   B2g   B3g    Au   B1u   B2u   B3u
    DOCC [     1,    0,    0,    0,    0,    0,    0,    0 ]
    SOCC [     0,    0,    0,    0,    0,    0,    0,    0 ]
    NA   [     1,    0,    0,    0,    0,    0,    0,    0 ]
    NB   [     1,    0,    0,    0,    0,    0,    0,    0 ]

  @DF-UKS Final Energy:    -1.17896006530120

   => Energetics <=

    Nuclear Repulsion Energy =              0.7506443033544976
    One-Electron Energy =                  -2.5526582939013669
    Two-Electron Energy =                   1.2066847695668019
    DFT Exchange-Correlation Energy =      -0.5836308443211287
    Empirical Dispersion Energy =           0.0000000000000000
    VV10 Nonlocal Energy =                  0.0000000000000000
    Total Energy =                         -1.1789600653011960

  UHF NO Occupations:
  HONO-0 :    1 Ag 2.0000000
  LUNO+0 :    2 Ag 0.0000000
  LUNO+1 :    3 Ag 0.0000000
  LUNO+2 :    4 Ag 0.0000000
  LUNO+3 :    5 Ag 0.0000000

Computation Completed

Properties will be evaluated at   0.000000,   0.000000,   0.000000 [a0]

Properties computed using the B3LYP density matrix

 Multipole Moments:

 ------------------------------------------------------------------------------------
     Multipole            Electronic (a.u.)      Nuclear  (a.u.)        Total (a.u.)
 ------------------------------------------------------------------------------------

 L = 1.  Multiply by 2.5417464519 to convert [e a0] to [Debye]
 Dipole X            :          0.0000000            0.0000000            0.0000000
 Dipole Y            :          0.0000000            0.0000000            0.0000000
 Dipole Z            :          0.0000000            0.0000000            0.0000000
 Magnitude           :                                                    0.0000000

 L = 2.  Multiply by 1.3450342976 to convert [e a0^2] to [Debye ang]
 Quadrupole XX       :         -1.5251754            0.0000000           -1.5251754
 Quadrupole XY       :          0.0000000            0.0000000            0.0000000
 Quadrupole XZ       :          0.0000000            0.0000000            0.0000000
 Quadrupole YY       :         -1.5251754            0.0000000           -1.5251754
 Quadrupole YZ       :          0.0000000            0.0000000            0.0000000
 Quadrupole ZZ       :         -2.0274368            0.8873636           -1.1400731
 Traceless XX        :          0.1674204           -0.2957879           -0.1283674
 Traceless YY        :          0.1674204           -0.2957879           -0.1283674
 Traceless ZZ        :         -0.3348409            0.5915757            0.2567349

 ------------------------------------------------------------------------------------
  ==> Computing MBIS Charges <==

  Electron Count from Grid (Expected Number):  2.00000 ( 2.00000)
  Difference: -0.00000

  MBIS Charges: (a.u.)
   Center  Symbol  Z      Pop.       Charge
      1       H    1    1.000000    0.000000
      2       H    1    1.000000    0.000000

  MBIS Dipoles: [e a0]
   Center  Symbol  Z        X           Y           Z
      1       H    1   -0.000000    0.000000   -0.079181
      2       H    1    0.000000   -0.000000    0.079181

  MBIS Quadrupoles: [e a0^2]
   Center  Symbol  Z      XX        XY        XZ        YY        YZ        ZZ
      1       H    1   -0.7626    0.0000   -0.0000   -0.7626   -0.0000   -0.6755
      2       H    1   -0.7626   -0.0000    0.0000   -0.7626    0.0000   -0.6755

  MBIS Octupoles: [e a0^3]
   Center  Symbol  Z      XXX       XXY       XXZ       XYY       XYZ       XZZ       YYY       YYZ       YZZ       ZZZ
      1       H    1    0.0000   -0.0000   -0.0391    0.0000   -0.0000    0.0000    0.0000   -0.0391    0.0000   -0.0505
      2       H    1    0.0000    0.0000    0.0391    0.0000    0.0000    0.0000    0.0000    0.0391    0.0000    0.0505

  MBIS Radial Moments:
   Center  Symbol  Z      [a0^2]      [a0^3]      [a0^4]
      1       H    1    2.200696    4.821762   12.872794
      2       H    1    2.200696    4.821762   12.872794

  MBIS Valence Widths: [a0]
   Center  Symbol  Z     Width
      1       H    1    0.425701
      2       H    1    0.425701

*** tstop() called on Mac.lan at Sun Aug 10 16:59:13 2025
Module time:
	user time   =       0.45 seconds =       0.01 minutes
	system time =       1.38 seconds =       0.02 minutes
	total time  =          0 seconds =       0.00 minutes
Total time:
	user time   =       1.36 seconds =       0.02 minutes
	system time =       3.58 seconds =       0.06 minutes
	total time  =          1 seconds =       0.02 minutes

    Psi4 stopped on: Sunday, 10 August 2025 04:59PM
    Psi4 wall time for execution: 0:00:00.76

*** Psi4 exiting successfully. Buy a developer a beer!
