                               Psi4 1.9.1 release

  ==> Input File <==

--------------------------------------------------------------------------
molecule {
0 1
N           0.000000           0.000000           0.000000
N           0.000000           0.000000           1.496677
}

set {
basis              cc-pvtz
reference          uks
maxiter            500
DAMPING_PERCENTAGE 1
E_CONVERGENCE      1.0E-8
D_CONVERGENCE      1.0E-8
DIIS_MAX_VECS      400
MBIS_MAXITER       8000
guess              read
}

E, wfn = energy('b3lyp', restart_file='last_wfn', return_wfn=True)
properties('b3lyp','MBIS_CHARGES', wfn=wfn)
wfn.to_file('last_wfn')
--------------------------------------------------------------------------

    Molecular point group: d2h
  Charge       = 0
  Multiplicity = 1
  Basis Set: CC-PVTZ
    Blend: CC-PVTZ
  Basis Set: (CC-PVTZ AUX)
    Blend: CC-PVTZ-JKFIT
  @DF-UKS Final Energy:  -109.37064821356775
    Total Energy =                       -109.3706482135677476
 Dipole X            :          0.0000000            0.0000000            0.0000000
 Dipole Y            :          0.0000000            0.0000000            0.0000000
 Dipole Z            :          0.0000000            0.0000000            0.0000000
 Magnitude           :                                                    0.0000000
    Molecular point group: d2h

    Geometry (in Angstrom), charge = 0, multiplicity = 1:

       Center              X                  Y                   Z               Mass
    ------------   -----------------  -----------------  -----------------  -----------------
         N            0.000000000000     0.000000000000    -0.748338500000    14.003074004430
         N            0.000000000000     0.000000000000     0.748338500000    14.003074004430

  Charge       = 0
  Multiplicity = 1
  Basis Set: CC-PVTZ
    Blend: CC-PVTZ
  Basis Set: (CC-PVTZ AUX)
    Blend: CC-PVTZ-JKFIT

    Orbital Energies [Eh]
    ---------------------

    Alpha Occupied:

       1Ag   -14.493280     1B1u  -14.493087     2Ag    -0.930624
       2B1u   -0.650442     3Ag    -0.410258     1B2u   -0.377859
       1B3u   -0.377859

    Alpha Virtual:

       1B3g   -0.157374     1B2g   -0.157374     3B1u    0.084500
       4B1u    0.397686     2B3u    0.418813     2B2u    0.418813
       4Ag     0.444790     5Ag     0.494149     2B3g    0.503200
       2B2g    0.503200     5B1u    0.865273     6Ag     0.883656
       1B1g    0.883656     3B2u    0.907504     3B3u    0.907504
       1Au     1.142712     6B1u    1.142712     7Ag     1.474629
       3B2g    1.539514     3B3g    1.539514     7B1u    1.643936
       4B3u    2.678192     4B2u    2.678192     8Ag     2.757436
       4B2g    2.861777     4B3g    2.861777     8B1u    3.490499
       5B2u    3.502812     5B3u    3.502812     9Ag     3.541295
       2B1g    3.541296    10Ag     3.570712     6B2u    3.767043
       6B3u    3.767043     5B3g    3.879304     5B2g    3.879304
       9B1u    4.154212     2Au     4.154214    11Ag     4.320803
       3B1g    4.320814     6B2g    4.461608     6B3g    4.461608
      10B1u    4.485855     3Au     4.485866     7B2u    4.525402
       7B3u    4.525402    11B1u    4.541953    12B1u    4.789535
      12Ag     4.975556     7B2g    5.200691     7B3g    5.200691
      13Ag     5.584277    13B1u    7.736490

    Beta Occupied:

       1Ag   -14.493280     1B1u  -14.493087     2Ag    -0.930624
       2B1u   -0.650442     3Ag    -0.410258     1B2u   -0.377859
       1B3u   -0.377859

    Beta Virtual:

       1B3g   -0.157374     1B2g   -0.157374     3B1u    0.084500
       4B1u    0.397686     2B3u    0.418813     2B2u    0.418813
       4Ag     0.444790     5Ag     0.494149     2B3g    0.503200
       2B2g    0.503200     5B1u    0.865273     6Ag     0.883656
       1B1g    0.883656     3B2u    0.907504     3B3u    0.907504
       1Au     1.142712     6B1u    1.142712     7Ag     1.474629
       3B2g    1.539514     3B3g    1.539514     7B1u    1.643936
       4B3u    2.678192     4B2u    2.678192     8Ag     2.757436
       4B2g    2.861777     4B3g    2.861777     8B1u    3.490499
       5B2u    3.502812     5B3u    3.502812     9Ag     3.541295
       2B1g    3.541296    10Ag     3.570712     6B2u    3.767043
       6B3u    3.767043     5B3g    3.879304     5B2g    3.879304
       9B1u    4.154212     2Au     4.154214    11Ag     4.320803
       3B1g    4.320814     6B2g    4.461608     6B3g    4.461608
      10B1u    4.485855     3Au     4.485866     7B2u    4.525402
       7B3u    4.525402    11B1u    4.541953    12B1u    4.789535
      12Ag     4.975556     7B2g    5.200691     7B3g    5.200691
      13Ag     5.584277    13B1u    7.736490

    Final Occupation by Irrep:
             Ag   B1g   B2g   B3g    Au   B1u   B2u   B3u
    DOCC [     3,    0,    0,    0,    0,    2,    1,    1 ]
    SOCC [     0,    0,    0,    0,    0,    0,    0,    0 ]
    NA   [     3,    0,    0,    0,    0,    2,    1,    1 ]
    NB   [     3,    0,    0,    0,    0,    2,    1,    1 ]

  @DF-UKS Final Energy:  -109.37064821373941

   => Energetics <=

    Nuclear Repulsion Energy =             17.3248358348728537
    One-Electron Energy =                -182.1297162972801971
    Two-Electron Energy =                  66.2537210884432142
    DFT Exchange-Correlation Energy =     -10.8194888397752909
    Empirical Dispersion Energy =           0.0000000000000000
    VV10 Nonlocal Energy =                  0.0000000000000000
    Total Energy =                       -109.3706482137394147

  UHF NO Occupations:
  HONO-2 :    1B2u 2.0000000
  HONO-1 :    1B3u 2.0000000
  HONO-0 :    2B1u 2.0000000
  LUNO+0 :    4 Ag 0.0000000
  LUNO+1 :    3B1u 0.0000000
  LUNO+2 :    2B2u 0.0000000
  LUNO+3 :    2B3u 0.0000000

Computation Completed

Properties will be evaluated at   0.000000,   0.000000,   0.000000 [a0]

Properties computed using the B3LYP density matrix

 Multipole Moments:

 ------------------------------------------------------------------------------------
     Multipole            Electronic (a.u.)      Nuclear  (a.u.)        Total (a.u.)
 ------------------------------------------------------------------------------------

 L = 1.  Multiply by 2.5417464519 to convert [e a0] to [Debye]
 Dipole X            :          0.0000000            0.0000000            0.0000000
 Dipole Y            :          0.0000000            0.0000000            0.0000000
 Dipole Z            :          0.0000000            0.0000000            0.0000000
 Magnitude           :                                                    0.0000000

 L = 2.  Multiply by 1.3450342976 to convert [e a0^2] to [Debye ang]
 Quadrupole XX       :         -8.2351176            0.0000000           -8.2351176
 Quadrupole XY       :          0.0000000            0.0000000            0.0000000
 Quadrupole XZ       :          0.0000000            0.0000000            0.0000000
 Quadrupole YY       :         -8.2351176            0.0000000           -8.2351176
 Quadrupole YZ       :          0.0000000            0.0000000            0.0000000
 Quadrupole ZZ       :        -36.4920702           27.9976737           -8.4943965
 Traceless XX        :          9.4189842           -9.3325579            0.0864263
 Traceless YY        :          9.4189842           -9.3325579            0.0864263
 Traceless ZZ        :        -18.8379684           18.6651158           -0.1728526

 ------------------------------------------------------------------------------------
  ==> Computing MBIS Charges <==

  Electron Count from Grid (Expected Number): 14.00000 (14.00000)
  Difference: -0.00000

  MBIS Charges: (a.u.)
   Center  Symbol  Z      Pop.       Charge
      1       N    7    7.000000    0.000000
      2       N    7    7.000000    0.000000

  MBIS Dipoles: [e a0]
   Center  Symbol  Z        X           Y           Z
      1       N    7   -0.000000   -0.000000   -0.041975
      2       N    7    0.000000   -0.000000    0.041975

  MBIS Quadrupoles: [e a0^2]
   Center  Symbol  Z      XX        XY        XZ        YY        YZ        ZZ
      1       N    7   -4.1176    0.0000    0.0000   -4.1176    0.0000   -4.3659
      2       N    7   -4.1176   -0.0000    0.0000   -4.1176    0.0000   -4.3659

  MBIS Octupoles: [e a0^3]
   Center  Symbol  Z      XXX       XXY       XXZ       XYY       XYZ       XZZ       YYY       YYZ       YZZ       ZZZ
      1       N    7   -0.0000   -0.0000   -0.1923   -0.0000    0.0000   -0.0000   -0.0000   -0.1923    0.0000   -0.4145
      2       N    7   -0.0000   -0.0000    0.1923    0.0000   -0.0000   -0.0000    0.0000    0.1923   -0.0000    0.4145

  MBIS Radial Moments:
   Center  Symbol  Z      [a0^2]      [a0^3]      [a0^4]
      1       N    7   12.601035   26.897146   68.321636
      2       N    7   12.601035   26.897146   68.321636

  MBIS Valence Widths: [a0]
   Center  Symbol  Z     Width
      1       N    7    0.446831
      2       N    7    0.446831

*** tstop() called on Mac.lan at Sun Aug 10 17:07:40 2025
Module time:
	user time   =       4.17 seconds =       0.07 minutes
	system time =       2.23 seconds =       0.04 minutes
	total time  =          0 seconds =       0.00 minutes
Total time:
	user time   =      15.48 seconds =       0.26 minutes
	system time =       4.13 seconds =       0.07 minutes
	total time  =          2 seconds =       0.03 minutes

    Psi4 stopped on: Sunday, 10 August 2025 05:07PM
    Psi4 wall time for execution: 0:00:01.91

*** Psi4 exiting successfully. Buy a developer a beer!
