                               Psi4 1.9.1 release

  ==> Input File <==

--------------------------------------------------------------------------
molecule {
0 2
C           0.000000           0.000000           0.000000
H           0.000000           0.000000           0.880614
}

set {
basis              cc-pvtz
reference          uks
maxiter            500
DAMPING_PERCENTAGE 1
E_CONVERGENCE      1.0E-8
D_CONVERGENCE      1.0E-8
DIIS_MAX_VECS      400
MBIS_MAXITER       8000
guess              read
}

E, wfn = energy('b3lyp', restart_file='last_wfn', return_wfn=True)
properties('b3lyp','MBIS_CHARGES', wfn=wfn)
wfn.to_file('last_wfn')
--------------------------------------------------------------------------

    Molecular point group: c2v
  Charge       = 0
  Multiplicity = 2
  Basis Set: CC-PVTZ
    Blend: CC-PVTZ
  Basis Set: (CC-PVTZ AUX)
    Blend: CC-PVTZ-JKFIT
  @DF-UKS Final Energy:   -38.44675939641650
    Total Energy =                        -38.4467593964165033
 Dipole X            :          0.0000000            0.0000000            0.0000000
 Dipole Y            :          0.0000000            0.0000000            0.0000000
 Dipole Z            :         -0.0329589            0.7615866            0.7286277
 Magnitude           :                                                    0.7286277
    Molecular point group: c2v

    Geometry (in Angstrom), charge = 0, multiplicity = 2:

       Center              X                  Y                   Z               Mass
    ------------   -----------------  -----------------  -----------------  -----------------
         C            0.000000000000     0.000000000000    -0.068228534035    12.000000000000
         H            0.000000000000     0.000000000000     0.812385465965     1.007825032230

  Charge       = 0
  Multiplicity = 2
  Basis Set: CC-PVTZ
    Blend: CC-PVTZ
  Basis Set: (CC-PVTZ AUX)
    Blend: CC-PVTZ-JKFIT

    Orbital Energies [Eh]
    ---------------------

    Alpha Occupied:

       1A1   -10.252868     2A1    -0.716957     3A1    -0.324244
       1B1    -0.259383

    Alpha Virtual:

       1B2    -0.148062     4A1     0.073580     5A1     0.286654
       2B1     0.292250     2B2     0.311421     6A1     0.363276
       7A1     0.547931     3B1     0.603871     3B2     0.608472
       1A2     0.654521     8A1     0.660412     9A1     0.994471
       4B1     1.075223     4B2     1.075387    10A1     1.749038
      11A1     1.906151     5B1     1.937557     5B2     1.962431
      12A1     2.167542     2A2     2.547425    13A1     2.551184
       6B1     2.643189     6B2     2.645403     7B1     2.686299
       7B2     2.694619     3A2     2.896942    14A1     2.907314
      15A1     3.015215     8B1     3.028253     8B2     3.030923
      16A1     3.652336     4A2     3.828081    17A1     3.830805
       9B2     3.941271     9B1     3.943146    18A1     5.273503
      10B1     5.307063    10B2     5.309984    19A1     5.515408
      20A1    11.299918

    Beta Occupied:

       1A1   -10.238447     2A1    -0.677870     3A1    -0.299948

    Beta Virtual:

       1B2    -0.131961     1B1    -0.086333     4A1     0.076522
       5A1     0.293369     2B2     0.318673     2B1     0.346460
       6A1     0.378056     7A1     0.561280     3B2     0.611086
       3B1     0.637771     1A2     0.698043     8A1     0.698158
       9A1     1.005745     4B2     1.076638     4B1     1.095456
      10A1     1.766749    11A1     1.918637     5B2     1.974396
       5B1     2.018049    12A1     2.191279     2A2     2.580234
      13A1     2.580706     6B2     2.695761     6B1     2.700874
       7B2     2.703271     7B1     2.734970    14A1     2.963568
       3A2     2.969642     8B2     3.034377    15A1     3.040241
       8B1     3.068057    16A1     3.663841     4A2     3.847353
      17A1     3.848378     9B2     3.940182     9B1     3.956996
      18A1     5.283933    10B2     5.312086    10B1     5.340696
      19A1     5.522974    20A1    11.314678

    Final Occupation by Irrep:
             A1    A2    B1    B2
    DOCC [     3,    0,    0,    0 ]
    SOCC [     0,    0,    1,    0 ]
    NA   [     3,    0,    1,    0 ]
    NB   [     3,    0,    0,    0 ]

  @DF-UKS Final Energy:   -38.44675939934675

   => Energetics <=

    Nuclear Repulsion Energy =              3.6055107731877989
    One-Electron Energy =                 -57.9922698756176018
    Two-Electron Energy =                  20.5708589761838461
    DFT Exchange-Correlation Energy =      -4.6308592731007892
    Empirical Dispersion Energy =           0.0000000000000000
    VV10 Nonlocal Energy =                  0.0000000000000000
    Total Energy =                        -38.4467593993467531

  UHF NO Occupations:
  HONO-2 :    2 A1 1.9998971
  HONO-1 :    3 A1 1.9987695
  HONO-0 :    1 B1 1.0000000
  LUNO+0 :    4 A1 0.0012305
  LUNO+1 :    5 A1 0.0001029
  LUNO+2 :    6 A1 0.0000007
  LUNO+3 :    7 A1 0.0000000

Computation Completed

Properties will be evaluated at   0.000000,   0.000000,   0.000000 [a0]

Properties computed using the B3LYP density matrix

 Multipole Moments:

 ------------------------------------------------------------------------------------
     Multipole            Electronic (a.u.)      Nuclear  (a.u.)        Total (a.u.)
 ------------------------------------------------------------------------------------

 L = 1.  Multiply by 2.5417464519 to convert [e a0] to [Debye]
 Dipole X            :          0.0000000            0.0000000            0.0000000
 Dipole Y            :          0.0000000            0.0000000            0.0000000
 Dipole Z            :         -0.0329589            0.7615866            0.7286277
 Magnitude           :                                                    0.7286277

 L = 2.  Multiply by 1.3450342976 to convert [e a0^2] to [Debye ang]
 Quadrupole XX       :         -5.5239999            0.0000000           -5.5239999
 Quadrupole XY       :          0.0000000            0.0000000            0.0000000
 Quadrupole XZ       :          0.0000000            0.0000000            0.0000000
 Quadrupole YY       :         -4.0259175            0.0000000           -4.0259175
 Quadrupole YZ       :          0.0000000            0.0000000            0.0000000
 Quadrupole ZZ       :         -7.9116209            2.4565389           -5.4550821
 Traceless XX        :          0.2965129           -0.8188463           -0.5223334
 Traceless YY        :          1.7945952           -0.8188463            0.9757489
 Traceless ZZ        :         -2.0911081            1.6376926           -0.4534156

 ------------------------------------------------------------------------------------
  ==> Computing MBIS Charges <==

  Electron Count from Grid (Expected Number):  7.00000 ( 7.00000)
  Difference:  0.00000

  MBIS Charges: (a.u.)
   Center  Symbol  Z      Pop.       Charge
      1       C    6    6.140715   -0.140715
      2       H    1    0.859285    0.140715

  MBIS Dipoles: [e a0]
   Center  Symbol  Z        X           Y           Z
      1       C    6    0.000000   -0.000000    0.458325
      2       H    1   -0.000000    0.000000    0.036136

  MBIS Quadrupoles: [e a0^2]
   Center  Symbol  Z      XX        XY        XZ        YY        YZ        ZZ
      1       C    6   -5.1572    0.0000    0.0000   -3.7115   -0.0000   -5.4246
      2       H    1   -0.3668   -0.0000    0.0000   -0.3144    0.0000   -0.3526

  MBIS Octupoles: [e a0^3]
   Center  Symbol  Z      XXX       XXY       XXZ       XYY       XYZ       XZZ       YYY       YYZ       YZZ       ZZZ
      1       C    6    0.0000    0.0000    0.7183    0.0000   -0.0000    0.0000    0.0000    0.8123    0.0000    1.6535
      2       H    1   -0.0000   -0.0000    0.0094   -0.0000    0.0000    0.0000    0.0000   -0.0078    0.0000   -0.0008

  MBIS Radial Moments:
   Center  Symbol  Z      [a0^2]      [a0^3]      [a0^4]
      1       C    6   14.293221   35.516949   105.027549
      2       H    1    1.033839    1.605438    2.995449

  MBIS Valence Widths: [a0]
   Center  Symbol  Z     Width
      1       C    6    0.520146
      2       H    1    0.320544

*** tstop() called on Mac.lan at Sun Aug 10 17:08:42 2025
Module time:
	user time   =       2.62 seconds =       0.04 minutes
	system time =       2.22 seconds =       0.04 minutes
	total time  =          0 seconds =       0.00 minutes
Total time:
	user time   =      10.06 seconds =       0.17 minutes
	system time =       4.31 seconds =       0.07 minutes
	total time  =          1 seconds =       0.02 minutes

    Psi4 stopped on: Sunday, 10 August 2025 05:08PM
    Psi4 wall time for execution: 0:00:01.43

*** Psi4 exiting successfully. Buy a developer a beer!
