                               Psi4 1.9.1 release

  ==> Input File <==

--------------------------------------------------------------------------
molecule {
0 1
O           0.000000           0.000000           0.000000
C           0.000000           0.000000           1.192779
}

set {
basis              cc-pvtz
reference          uks
maxiter            500
DAMPING_PERCENTAGE 1
E_CONVERGENCE      1.0E-8
D_CONVERGENCE      1.0E-8
DIIS_MAX_VECS      400
MBIS_MAXITER       8000
guess              read
}

E, wfn = energy('b3lyp', restart_file='last_wfn', return_wfn=True)
properties('b3lyp','MBIS_CHARGES', wfn=wfn)
wfn.to_file('last_wfn')
--------------------------------------------------------------------------

    Molecular point group: c2v
  Charge       = 0
  Multiplicity = 1
  Basis Set: CC-PVTZ
    Blend: CC-PVTZ
  Basis Set: (CC-PVTZ AUX)
    Blend: CC-PVTZ-JKFIT
  @DF-UKS Final Energy:  -113.34860578152237
    Total Energy =                       -113.3486057815223660
 Dipole X            :          0.0000000            0.0000000            0.0000000
 Dipole Y            :          0.0000000            0.0000000            0.0000000
 Dipole Z            :          0.0453780           -0.0024567            0.0429213
 Magnitude           :                                                    0.0429213
    Molecular point group: c2v

    Geometry (in Angstrom), charge = 0, multiplicity = 1:

       Center              X                  Y                   Z               Mass
    ------------   -----------------  -----------------  -----------------  -----------------
         O            0.000000000000     0.000000000000    -0.511283859748    15.994914619570
         C            0.000000000000     0.000000000000     0.681495140252    12.000000000000

  Charge       = 0
  Multiplicity = 1
  Basis Set: CC-PVTZ
    Blend: CC-PVTZ
  Basis Set: (CC-PVTZ AUX)
    Blend: CC-PVTZ-JKFIT

    Orbital Energies [Eh]
    ---------------------

    Alpha Occupied:

       1A1   -19.241591     2A1   -10.317099     3A1    -1.135356
       4A1    -0.581613     1B1    -0.460904     1B2    -0.460904
       5A1    -0.389137

    Alpha Virtual:

       2B1    -0.057326     2B2    -0.057326     6A1     0.154850
       3B1     0.287521     3B2     0.287521     7A1     0.302204
       8A1     0.515046     9A1     0.538432     4B1     0.614244
       4B2     0.614244    10A1     0.633084     1A2     0.633084
       5B1     0.829784     5B2     0.829784    11A1     1.101125
      12A1     1.242607     2A2     1.484089    13A1     1.484089
       6B1     1.822949     6B2     1.822949    14A1     1.949091
       7B1     1.994821     7B2     1.994821    15A1     2.338927
       8B2     2.628666     8B1     2.628666    16A1     2.771273
       3A2     2.771273    17A1     2.917491     4A2     2.917492
       9B1     2.940345     9B2     2.940345    18A1     3.109375
      10B1     3.177171    10B2     3.177171    19A1     3.274281
      11B1     3.979403    11B2     3.979403    20A1     4.209572
      12B2     5.065465    12B1     5.065465     5A2     5.387791
      21A1     5.387791    22A1     5.948805    13B2     6.045429
      13B1     6.045429    23A1     6.205362     6A2     6.205383
      24A1     6.551529    14B1     6.710568    14B2     6.710568
      25A1     6.919491    26A1    11.249270

    Beta Occupied:

       1A1   -19.241591     2A1   -10.317099     3A1    -1.135356
       4A1    -0.581613     1B1    -0.460904     1B2    -0.460904
       5A1    -0.389137

    Beta Virtual:

       2B1    -0.057326     2B2    -0.057326     6A1     0.154850
       3B1     0.287521     3B2     0.287521     7A1     0.302204
       8A1     0.515046     9A1     0.538432     4B1     0.614244
       4B2     0.614244    10A1     0.633084     1A2     0.633084
       5B1     0.829784     5B2     0.829784    11A1     1.101125
      12A1     1.242607     2A2     1.484089    13A1     1.484089
       6B1     1.822949     6B2     1.822949    14A1     1.949091
       7B1     1.994821     7B2     1.994821    15A1     2.338927
       8B2     2.628666     8B1     2.628666    16A1     2.771273
       3A2     2.771273    17A1     2.917491     4A2     2.917492
       9B1     2.940345     9B2     2.940345    18A1     3.109375
      10B1     3.177171    10B2     3.177171    19A1     3.274281
      11B1     3.979403    11B2     3.979403    20A1     4.209572
      12B2     5.065465    12B1     5.065465     5A2     5.387791
      21A1     5.387791    22A1     5.948805    13B2     6.045429
      13B1     6.045429    23A1     6.205362     6A2     6.205383
      24A1     6.551529    14B1     6.710568    14B2     6.710568
      25A1     6.919491    26A1    11.249270

    Final Occupation by Irrep:
             A1    A2    B1    B2
    DOCC [     5,    0,    1,    1 ]
    SOCC [     0,    0,    0,    0 ]
    NA   [     5,    0,    1,    1 ]
    NB   [     5,    0,    1,    1 ]

  @DF-UKS Final Energy:  -113.34860577856816

   => Energetics <=

    Nuclear Repulsion Energy =             21.2952324882983355
    One-Electron Energy =                -196.0695758179065251
    Two-Electron Energy =                  72.6083948554479122
    DFT Exchange-Correlation Energy =     -11.1826573044078721
    Empirical Dispersion Energy =           0.0000000000000000
    VV10 Nonlocal Energy =                  0.0000000000000000
    Total Energy =                       -113.3486057785681567

  UHF NO Occupations:
  HONO-2 :    3 A1 2.0000000
  HONO-1 :    4 A1 2.0000000
  HONO-0 :    5 A1 2.0000000
  LUNO+0 :    6 A1 0.0000000
  LUNO+1 :    7 A1 0.0000000
  LUNO+2 :    8 A1 0.0000000
  LUNO+3 :    2 B1 0.0000000

Computation Completed

Properties will be evaluated at   0.000000,   0.000000,   0.000000 [a0]

Properties computed using the B3LYP density matrix

 Multipole Moments:

 ------------------------------------------------------------------------------------
     Multipole            Electronic (a.u.)      Nuclear  (a.u.)        Total (a.u.)
 ------------------------------------------------------------------------------------

 L = 1.  Multiply by 2.5417464519 to convert [e a0] to [Debye]
 Dipole X            :          0.0000000            0.0000000            0.0000000
 Dipole Y            :          0.0000000            0.0000000            0.0000000
 Dipole Z            :          0.0453780           -0.0024567            0.0429213
 Magnitude           :                                                    0.0429213

 L = 2.  Multiply by 1.3450342976 to convert [e a0^2] to [Debye ang]
 Quadrupole XX       :         -7.6851377            0.0000000           -7.6851377
 Quadrupole XY       :          0.0000000            0.0000000            0.0000000
 Quadrupole XZ       :          0.0000000            0.0000000            0.0000000
 Quadrupole YY       :         -7.6851377            0.0000000           -7.6851377
 Quadrupole YZ       :          0.0000000            0.0000000            0.0000000
 Quadrupole ZZ       :        -26.4887705           17.4193087           -9.0694618
 Traceless XX        :          6.2678776           -5.8064362            0.4614414
 Traceless YY        :          6.2678776           -5.8064362            0.4614414
 Traceless ZZ        :        -12.5357552           11.6128725           -0.9228827

 ------------------------------------------------------------------------------------
  ==> Computing MBIS Charges <==

  Electron Count from Grid (Expected Number): 14.00000 (14.00000)
  Difference:  0.00000

  MBIS Charges: (a.u.)
   Center  Symbol  Z      Pop.       Charge
      1       O    8    8.169519   -0.169519
      2       C    6    5.830482    0.169518

  MBIS Dipoles: [e a0]
   Center  Symbol  Z        X           Y           Z
      1       O    8    0.000000   -0.000000   -0.064425
      2       C    6    0.000000    0.000000   -0.274753

  MBIS Quadrupoles: [e a0^2]
   Center  Symbol  Z      XX        XY        XZ        YY        YZ        ZZ
      1       O    8   -3.7224    0.0000   -0.0000   -3.7224    0.0000   -3.8936
      2       C    6   -3.9627   -0.0000    0.0000   -3.9627    0.0000   -4.7156

  MBIS Octupoles: [e a0^3]
   Center  Symbol  Z      XXX       XXY       XXZ       XYY       XYZ       XZZ       YYY       YYZ       YZZ       ZZZ
      1       O    8    0.0000    0.0000   -0.0083   -0.0000    0.0000    0.0000   -0.0000   -0.0083    0.0000   -0.1202
      2       C    6    0.0000   -0.0000   -0.2036    0.0000    0.0000    0.0000    0.0000   -0.2036    0.0000   -0.6887

  MBIS Radial Moments:
   Center  Symbol  Z      [a0^2]      [a0^3]      [a0^4]
      1       O    8   11.338403   20.944245   46.371986
      2       C    6   12.641055   30.266524   85.893057

  MBIS Valence Widths: [a0]
   Center  Symbol  Z     Width
      1       O    8    0.381912
      2       C    6    0.507940

*** tstop() called on Mac.lan at Sun Aug 10 17:17:38 2025
Module time:
	user time   =       3.77 seconds =       0.06 minutes
	system time =       2.64 seconds =       0.04 minutes
	total time  =          1 seconds =       0.02 minutes
Total time:
	user time   =      16.35 seconds =       0.27 minutes
	system time =       4.41 seconds =       0.07 minutes
	total time  =          2 seconds =       0.03 minutes

    Psi4 stopped on: Sunday, 10 August 2025 05:17PM
    Psi4 wall time for execution: 0:00:02.03

*** Psi4 exiting successfully. Buy a developer a beer!
