                               Psi4 1.9.1 release

  ==> Input File <==

--------------------------------------------------------------------------
molecule {
0 1
N           0.000000           0.000000           0.000000
N           0.000000           0.000000           1.035647
}

set {
basis              cc-pvtz
reference          uks
maxiter            500
DAMPING_PERCENTAGE 1
E_CONVERGENCE      1.0E-8
D_CONVERGENCE      1.0E-8
DIIS_MAX_VECS      400
MBIS_MAXITER       8000
guess              read
}

E, wfn = energy('b3lyp', restart_file='last_wfn', return_wfn=True)
properties('b3lyp','MBIS_CHARGES', wfn=wfn)
wfn.to_file('last_wfn')
--------------------------------------------------------------------------

    Molecular point group: d2h
  Charge       = 0
  Multiplicity = 1
  Basis Set: CC-PVTZ
    Blend: CC-PVTZ
  Basis Set: (CC-PVTZ AUX)
    Blend: CC-PVTZ-JKFIT
  @DF-UKS Final Energy:  -109.55831242768240
    Total Energy =                       -109.5583124276823952
 Dipole X            :          0.0000000            0.0000000            0.0000000
 Dipole Y            :          0.0000000            0.0000000            0.0000000
 Dipole Z            :          0.0000000            0.0000000            0.0000000
 Magnitude           :                                                    0.0000000
    Molecular point group: d2h

    Geometry (in Angstrom), charge = 0, multiplicity = 1:

       Center              X                  Y                   Z               Mass
    ------------   -----------------  -----------------  -----------------  -----------------
         N            0.000000000000     0.000000000000    -0.517823500000    14.003074004430
         N            0.000000000000     0.000000000000     0.517823500000    14.003074004430

  Charge       = 0
  Multiplicity = 1
  Basis Set: CC-PVTZ
    Blend: CC-PVTZ
  Basis Set: (CC-PVTZ AUX)
    Blend: CC-PVTZ-JKFIT

    Orbital Energies [Eh]
    ---------------------

    Alpha Occupied:

       1Ag   -14.403392     1B1u  -14.400306     2Ag    -1.164550
       2B1u   -0.538754     1B2u   -0.490456     1B3u   -0.490456
       3Ag    -0.437175

    Alpha Virtual:

       1B3g    0.002336     1B2g    0.002336     3B1u    0.300402
       2B3u    0.381348     2B2u    0.381348     4Ag     0.403367
       5Ag     0.490779     2B2g    0.540851     2B3g    0.540851
       4B1u    0.741815     6Ag     0.829918     1B1g    0.829918
       5B1u    0.935735     3B3u    1.134732     3B2u    1.134732
       6B1u    1.288561     1Au     1.288561     7Ag     1.669475
       3B2g    1.689747     3B3g    1.689747     7B1u    2.046294
       4B3u    2.731916     4B2u    2.731916     8Ag     2.953490
       4B3g    3.140714     4B2g    3.140714     8B1u    3.331845
       2B1g    3.482161     9Ag     3.482161     5B3u    3.566461
       5B2u    3.566461     6B3u    3.646503     6B2u    3.646503
      10Ag     4.026597     5B2g    4.127136     5B3g    4.127136
       3B1g    4.361974    11Ag     4.361975     6B3g    4.413350
       6B2g    4.413350     2Au     4.492701     9B1u    4.492702
      10B1u    4.782950    12Ag     5.010187    11B1u    5.052426
       3Au     5.052427     7B2u    5.085560     7B3u    5.085560
      12B1u    5.894381     7B3g    6.681558     7B2g    6.681558
      13Ag     6.915387    13B1u   18.219308

    Beta Occupied:

       1Ag   -14.403392     1B1u  -14.400306     2Ag    -1.164550
       2B1u   -0.538754     1B2u   -0.490456     1B3u   -0.490456
       3Ag    -0.437175

    Beta Virtual:

       1B3g    0.002336     1B2g    0.002336     3B1u    0.300402
       2B3u    0.381348     2B2u    0.381348     4Ag     0.403367
       5Ag     0.490779     2B2g    0.540851     2B3g    0.540851
       4B1u    0.741815     6Ag     0.829918     1B1g    0.829918
       5B1u    0.935735     3B3u    1.134732     3B2u    1.134732
       6B1u    1.288561     1Au     1.288561     7Ag     1.669475
       3B2g    1.689747     3B3g    1.689747     7B1u    2.046294
       4B3u    2.731916     4B2u    2.731916     8Ag     2.953490
       4B3g    3.140714     4B2g    3.140714     8B1u    3.331845
       2B1g    3.482161     9Ag     3.482161     5B3u    3.566461
       5B2u    3.566461     6B3u    3.646503     6B2u    3.646503
      10Ag     4.026597     5B2g    4.127136     5B3g    4.127136
       3B1g    4.361974    11Ag     4.361975     6B3g    4.413350
       6B2g    4.413350     2Au     4.492701     9B1u    4.492702
      10B1u    4.782950    12Ag     5.010187    11B1u    5.052426
       3Au     5.052427     7B2u    5.085560     7B3u    5.085560
      12B1u    5.894381     7B3g    6.681558     7B2g    6.681558
      13Ag     6.915387    13B1u   18.219308

    Final Occupation by Irrep:
             Ag   B1g   B2g   B3g    Au   B1u   B2u   B3u
    DOCC [     3,    0,    0,    0,    0,    2,    1,    1 ]
    SOCC [     0,    0,    0,    0,    0,    0,    0,    0 ]
    NA   [     3,    0,    0,    0,    0,    2,    1,    1 ]
    NB   [     3,    0,    0,    0,    0,    2,    1,    1 ]

  @DF-UKS Final Energy:  -109.55831242763141

   => Energetics <=

    Nuclear Repulsion Energy =             25.0371828652330350
    One-Electron Energy =                -197.3215294599712593
    Two-Electron Energy =                  73.8758096545139153
    DFT Exchange-Correlation Energy =     -11.1497754874070960
    Empirical Dispersion Energy =           0.0000000000000000
    VV10 Nonlocal Energy =                  0.0000000000000000
    Total Energy =                       -109.5583124276314066

  UHF NO Occupations:
  HONO-2 :    2 Ag 2.0000000
  HONO-1 :    3 Ag 2.0000000
  HONO-0 :    2B1u 2.0000000
  LUNO+0 :    3B1u 0.0000000
  LUNO+1 :    2B3u 0.0000000
  LUNO+2 :    4B1u 0.0000000
  LUNO+3 :    5B1u 0.0000000

Computation Completed

Properties will be evaluated at   0.000000,   0.000000,   0.000000 [a0]

Properties computed using the B3LYP density matrix

 Multipole Moments:

 ------------------------------------------------------------------------------------
     Multipole            Electronic (a.u.)      Nuclear  (a.u.)        Total (a.u.)
 ------------------------------------------------------------------------------------

 L = 1.  Multiply by 2.5417464519 to convert [e a0] to [Debye]
 Dipole X            :          0.0000000            0.0000000            0.0000000
 Dipole Y            :          0.0000000            0.0000000            0.0000000
 Dipole Z            :          0.0000000            0.0000000            0.0000000
 Magnitude           :                                                    0.0000000

 L = 2.  Multiply by 1.3450342976 to convert [e a0^2] to [Debye ang]
 Quadrupole XX       :         -7.3943891            0.0000000           -7.3943891
 Quadrupole XY       :          0.0000000            0.0000000            0.0000000
 Quadrupole XZ       :          0.0000000            0.0000000            0.0000000
 Quadrupole YY       :         -7.3943891            0.0000000           -7.3943891
 Quadrupole YZ       :          0.0000000            0.0000000            0.0000000
 Quadrupole ZZ       :        -22.1101834           13.4056934           -8.7044901
 Traceless XX        :          4.9052648           -4.4685645            0.4367003
 Traceless YY        :          4.9052648           -4.4685645            0.4367003
 Traceless ZZ        :         -9.8105295            8.9371289           -0.8734006

 ------------------------------------------------------------------------------------
  ==> Computing MBIS Charges <==

  Electron Count from Grid (Expected Number): 14.00000 (14.00000)
  Difference: -0.00000

  MBIS Charges: (a.u.)
   Center  Symbol  Z      Pop.       Charge
      1       N    7    7.000000    0.000000
      2       N    7    7.000000    0.000000

  MBIS Dipoles: [e a0]
   Center  Symbol  Z        X           Y           Z
      1       N    7   -0.000000   -0.000000    0.078601
      2       N    7   -0.000000   -0.000000   -0.078601

  MBIS Quadrupoles: [e a0^2]
   Center  Symbol  Z      XX        XY        XZ        YY        YZ        ZZ
      1       N    7   -3.6972    0.0000   -0.0000   -3.6972   -0.0000   -4.1984
      2       N    7   -3.6972    0.0000    0.0000   -3.6972    0.0000   -4.1984

  MBIS Octupoles: [e a0^3]
   Center  Symbol  Z      XXX       XXY       XXZ       XYY       XYZ       XZZ       YYY       YYZ       YZZ       ZZZ
      1       N    7   -0.0000   -0.0000    0.0809   -0.0000    0.0000   -0.0000   -0.0000    0.0809    0.0000    0.2821
      2       N    7   -0.0000   -0.0000   -0.0809   -0.0000   -0.0000    0.0000   -0.0000   -0.0809   -0.0000   -0.2821

  MBIS Radial Moments:
   Center  Symbol  Z      [a0^2]      [a0^3]      [a0^4]
      1       N    7   11.592806   23.738003   58.065361
      2       N    7   11.592806   23.738003   58.065361

  MBIS Valence Widths: [a0]
   Center  Symbol  Z     Width
      1       N    7    0.426772
      2       N    7    0.426772

*** tstop() called on Mac.lan at Sun Aug 10 17:05:40 2025
Module time:
	user time   =       3.96 seconds =       0.07 minutes
	system time =       1.99 seconds =       0.03 minutes
	total time  =          1 seconds =       0.02 minutes
Total time:
	user time   =      15.48 seconds =       0.26 minutes
	system time =       4.58 seconds =       0.08 minutes
	total time  =          2 seconds =       0.03 minutes

    Psi4 stopped on: Sunday, 10 August 2025 05:05PM
    Psi4 wall time for execution: 0:00:01.95

*** Psi4 exiting successfully. Buy a developer a beer!
