                               Psi4 1.9.1 release

  ==> Input File <==

--------------------------------------------------------------------------
molecule {
0 2
C           0.000000           0.000000           0.000000
H           0.000000           0.000000           1.190205
}

set {
basis              cc-pvtz
reference          uks
maxiter            500
DAMPING_PERCENTAGE 1
E_CONVERGENCE      1.0E-8
D_CONVERGENCE      1.0E-8
DIIS_MAX_VECS      400
MBIS_MAXITER       8000
guess              read
}

E, wfn = energy('b3lyp', restart_file='last_wfn', return_wfn=True)
properties('b3lyp','MBIS_CHARGES', wfn=wfn)
wfn.to_file('last_wfn')
--------------------------------------------------------------------------

    Molecular point group: c2v
  Charge       = 0
  Multiplicity = 2
  Basis Set: CC-PVTZ
    Blend: CC-PVTZ
  Basis Set: (CC-PVTZ AUX)
    Blend: CC-PVTZ-JKFIT
  @DF-UKS Final Energy:   -38.49432112270172
    Total Energy =                        -38.4943211227017201
 Dipole X            :          0.0000000            0.0000000            0.0000000
 Dipole Y            :          0.0000000            0.0000000            0.0000000
 Dipole Z            :         -0.4999269            1.0293320            0.5294051
 Magnitude           :                                                    0.5294051
    Molecular point group: c2v

    Geometry (in Angstrom), charge = 0, multiplicity = 2:

       Center              X                  Y                   Z               Mass
    ------------   -----------------  -----------------  -----------------  -----------------
         C            0.000000000000     0.000000000000    -0.092215138927    12.000000000000
         H            0.000000000000     0.000000000000     1.097989861073     1.007825032230

  Charge       = 0
  Multiplicity = 2
  Basis Set: CC-PVTZ
    Blend: CC-PVTZ
  Basis Set: (CC-PVTZ AUX)
    Blend: CC-PVTZ-JKFIT

    Orbital Energies [Eh]
    ---------------------

    Alpha Occupied:

       1A1   -10.289013     2A1    -0.637237     3A1    -0.323678
       1B1    -0.260622

    Alpha Virtual:

       1B2    -0.148418     4A1     0.049553     5A1     0.279511
       2B1     0.290816     2B2     0.310509     6A1     0.338690
       7A1     0.441998     3B1     0.560808     3B2     0.563852
       1A2     0.654814     8A1     0.660555     9A1     0.939497
       4B1     1.010412     4B2     1.010879    10A1     1.308411
       5B1     1.922906     5B2     1.949193    11A1     2.093785
      12A1     2.239851     2A2     2.526104    13A1     2.529858
       6B1     2.593188     6B2     2.599091     7B1     2.640525
       7B2     2.643036    14A1     2.847005     3A2     2.898434
      15A1     2.912895     8B1     3.044878     8B2     3.054700
      16A1     3.148814     4A2     3.490040    17A1     3.491584
       9B2     3.765353     9B1     3.767797    18A1     4.227562
      10B1     4.512404    10B2     4.513131    19A1     4.588587
      20A1     7.410083

    Beta Occupied:

       1A1   -10.274183     2A1    -0.593578     3A1    -0.304655

    Beta Virtual:

       1B2    -0.132323     1B1    -0.086221     4A1     0.055648
       5A1     0.285768     2B2     0.317966     2B1     0.346654
       6A1     0.348217     7A1     0.458784     3B2     0.565059
       3B1     0.586944     8A1     0.698032     1A2     0.698336
       9A1     0.952556     4B2     1.012301     4B1     1.031971
      10A1     1.317547     5B2     1.960572     5B1     2.004540
      11A1     2.103938    12A1     2.252869     2A2     2.556309
      13A1     2.556526     6B2     2.602130     6B1     2.634234
       7B2     2.699155     7B1     2.699925    14A1     2.866057
       3A2     2.976457    15A1     2.980465     8B2     3.059399
       8B1     3.099611    16A1     3.164190     4A2     3.499848
      17A1     3.500207     9B2     3.761107     9B1     3.769615
      18A1     4.236714    10B2     4.513591    10B1     4.535445
      19A1     4.592942    20A1     7.426913

    Final Occupation by Irrep:
             A1    A2    B1    B2
    DOCC [     3,    0,    0,    0 ]
    SOCC [     0,    0,    1,    0 ]
    NA   [     3,    0,    1,    0 ]
    NB   [     3,    0,    0,    0 ]

  @DF-UKS Final Energy:   -38.49432112289124

   => Energetics <=

    Nuclear Repulsion Energy =              2.6676608349149937
    One-Electron Energy =                 -56.3694048770632037
    Two-Electron Energy =                  19.7377761745722538
    DFT Exchange-Correlation Energy =      -4.5303532553152825
    Empirical Dispersion Energy =           0.0000000000000000
    VV10 Nonlocal Energy =                  0.0000000000000000
    Total Energy =                        -38.4943211228912361

  UHF NO Occupations:
  HONO-2 :    2 A1 1.9998030
  HONO-1 :    3 A1 1.9986556
  HONO-0 :    1 B1 1.0000000
  LUNO+0 :    4 A1 0.0013444
  LUNO+1 :    5 A1 0.0001970
  LUNO+2 :    6 A1 0.0000007
  LUNO+3 :    7 A1 0.0000000

Computation Completed

Properties will be evaluated at   0.000000,   0.000000,   0.000000 [a0]

Properties computed using the B3LYP density matrix

 Multipole Moments:

 ------------------------------------------------------------------------------------
     Multipole            Electronic (a.u.)      Nuclear  (a.u.)        Total (a.u.)
 ------------------------------------------------------------------------------------

 L = 1.  Multiply by 2.5417464519 to convert [e a0] to [Debye]
 Dipole X            :          0.0000000            0.0000000            0.0000000
 Dipole Y            :          0.0000000            0.0000000            0.0000000
 Dipole Z            :         -0.4999269            1.0293320            0.5294051
 Magnitude           :                                                    0.5294051

 L = 2.  Multiply by 1.3450342976 to convert [e a0^2] to [Debye ang]
 Quadrupole XX       :         -5.7492540            0.0000000           -5.7492540
 Quadrupole XY       :          0.0000000            0.0000000            0.0000000
 Quadrupole XZ       :          0.0000000            0.0000000            0.0000000
 Quadrupole YY       :         -4.2575840            0.0000000           -4.2575840
 Quadrupole YZ       :          0.0000000            0.0000000            0.0000000
 Quadrupole ZZ       :        -10.0742762            4.4874127           -5.5868636
 Traceless XX        :          0.9444507           -1.4958042           -0.5513535
 Traceless YY        :          2.4361208           -1.4958042            0.9403166
 Traceless ZZ        :         -3.3805715            2.9916084           -0.3889631

 ------------------------------------------------------------------------------------
  ==> Computing MBIS Charges <==

  Electron Count from Grid (Expected Number):  7.00000 ( 7.00000)
  Difference:  0.00000

  MBIS Charges: (a.u.)
   Center  Symbol  Z      Pop.       Charge
      1       C    6    6.072079   -0.072079
      2       H    1    0.927921    0.072079

  MBIS Dipoles: [e a0]
   Center  Symbol  Z        X           Y           Z
      1       C    6   -0.000000    0.000000    0.314744
      2       H    1    0.000000    0.000000    0.052544

  MBIS Quadrupoles: [e a0^2]
   Center  Symbol  Z      XX        XY        XZ        YY        YZ        ZZ
      1       C    6   -5.1293    0.0000   -0.0000   -3.7110   -0.0000   -5.3893
      2       H    1   -0.6200   -0.0000   -0.0000   -0.5466   -0.0000   -0.6141

  MBIS Octupoles: [e a0^3]
   Center  Symbol  Z      XXX       XXY       XXZ       XYY       XYZ       XZZ       YYY       YYZ       YZZ       ZZZ
      1       C    6    0.0000    0.0000    0.4158   -0.0000   -0.0000    0.0000   -0.0000    0.4256   -0.0000    0.7624
      2       H    1   -0.0000    0.0000    0.0000   -0.0000   -0.0000   -0.0000   -0.0000   -0.0456   -0.0000   -0.0309

  MBIS Radial Moments:
   Center  Symbol  Z      [a0^2]      [a0^3]      [a0^4]
      1       C    6   14.229564   35.538760   106.189980
      2       H    1    1.780617    3.541987    8.498436

  MBIS Valence Widths: [a0]
   Center  Symbol  Z     Width
      1       C    6    0.523781
      2       H    1    0.402303

*** tstop() called on Mac.lan at Sun Aug 10 17:09:07 2025
Module time:
	user time   =       3.27 seconds =       0.05 minutes
	system time =       1.31 seconds =       0.02 minutes
	total time  =          1 seconds =       0.02 minutes
Total time:
	user time   =      11.67 seconds =       0.19 minutes
	system time =       3.74 seconds =       0.06 minutes
	total time  =          2 seconds =       0.03 minutes

    Psi4 stopped on: Sunday, 10 August 2025 05:09PM
    Psi4 wall time for execution: 0:00:01.51

*** Psi4 exiting successfully. Buy a developer a beer!
