                               Psi4 1.9.1 release

  ==> Input File <==

--------------------------------------------------------------------------
molecule {
0 1
H           0.000000           0.000000           0.000000
H           0.000000           0.000000           1.114297
}

set {
basis              cc-pvtz
reference          uks
maxiter            500
DAMPING_PERCENTAGE 1
E_CONVERGENCE      1.0E-8
D_CONVERGENCE      1.0E-8
DIIS_MAX_VECS      400
MBIS_MAXITER       8000
guess              read
}

E, wfn = energy('b3lyp', restart_file='last_wfn', return_wfn=True)
properties('b3lyp','MBIS_CHARGES', wfn=wfn)
wfn.to_file('last_wfn')
--------------------------------------------------------------------------

    Molecular point group: d2h
  Charge       = 0
  Multiplicity = 1
  Basis Set: CC-PVTZ
    Blend: CC-PVTZ
  Basis Set: (CC-PVTZ AUX)
    Blend: CC-PVTZ-JKFIT
  @DF-UKS Final Energy:    -1.13322223832486
    Total Energy =                         -1.1332222383248618
 Dipole X            :          0.0000000            0.0000000            0.0000000
 Dipole Y            :          0.0000000            0.0000000            0.0000000
 Dipole Z            :          0.0000000            0.0000000            0.0000000
 Magnitude           :                                                    0.0000000
    Molecular point group: d2h

    Geometry (in Angstrom), charge = 0, multiplicity = 1:

       Center              X                  Y                   Z               Mass
    ------------   -----------------  -----------------  -----------------  -----------------
         H            0.000000000000     0.000000000000    -0.557148500000     1.007825032230
         H            0.000000000000     0.000000000000     0.557148500000     1.007825032230

  Charge       = 0
  Multiplicity = 1
  Basis Set: CC-PVTZ
    Blend: CC-PVTZ
  Basis Set: (CC-PVTZ AUX)
    Blend: CC-PVTZ-JKFIT

    Orbital Energies [Eh]
    ---------------------

    Alpha Occupied:

       1Ag    -0.373835

    Alpha Virtual:

       1B1u   -0.022550     2Ag     0.220742     2B1u    0.354590
       1B2u    0.493663     1B3u    0.493663     3Ag     0.772310
       1B2g    0.847671     1B3g    0.847671     3B1u    1.260977
       4Ag     2.240325     4B1u    2.368097     2B2u    2.867672
       2B3u    2.867672     5Ag     2.978375     1B1g    2.978376
       6Ag     2.997734     5B1u    3.449651     1Au     3.449652
       3B2u    3.598176     3B3u    3.598176     2B3g    3.682324
       2B2g    3.682324     6B1u    3.771451     3B2g    4.345980
       3B3g    4.345980     7Ag     4.443247     7B1u    5.657603

    Beta Occupied:

       1Ag    -0.373835

    Beta Virtual:

       1B1u   -0.022550     2Ag     0.220742     2B1u    0.354590
       1B2u    0.493663     1B3u    0.493663     3Ag     0.772310
       1B2g    0.847671     1B3g    0.847671     3B1u    1.260977
       4Ag     2.240325     4B1u    2.368097     2B2u    2.867672
       2B3u    2.867672     5Ag     2.978375     1B1g    2.978376
       6Ag     2.997734     5B1u    3.449651     1Au     3.449652
       3B2u    3.598176     3B3u    3.598176     2B2g    3.682324
       2B3g    3.682324     6B1u    3.771451     3B2g    4.345980
       3B3g    4.345980     7Ag     4.443247     7B1u    5.657603

    Final Occupation by Irrep:
             Ag   B1g   B2g   B3g    Au   B1u   B2u   B3u
    DOCC [     1,    0,    0,    0,    0,    0,    0,    0 ]
    SOCC [     0,    0,    0,    0,    0,    0,    0,    0 ]
    NA   [     1,    0,    0,    0,    0,    0,    0,    0 ]
    NB   [     1,    0,    0,    0,    0,    0,    0,    0 ]

  @DF-UKS Final Energy:    -1.13322223824594

   => Energetics <=

    Nuclear Repulsion Energy =              0.4748978150977701
    One-Electron Energy =                  -2.1073538410361703
    Two-Electron Energy =                   0.9969551716674165
    DFT Exchange-Correlation Energy =      -0.4977213839749532
    Empirical Dispersion Energy =           0.0000000000000000
    VV10 Nonlocal Energy =                  0.0000000000000000
    Total Energy =                         -1.1332222382459369

  UHF NO Occupations:
  HONO-0 :    1 Ag 2.0000000
  LUNO+0 :    2 Ag 0.0000000
  LUNO+1 :    3 Ag 0.0000000
  LUNO+2 :    4 Ag 0.0000000
  LUNO+3 :    5 Ag 0.0000000

Computation Completed

Properties will be evaluated at   0.000000,   0.000000,   0.000000 [a0]

Properties computed using the B3LYP density matrix

 Multipole Moments:

 ------------------------------------------------------------------------------------
     Multipole            Electronic (a.u.)      Nuclear  (a.u.)        Total (a.u.)
 ------------------------------------------------------------------------------------

 L = 1.  Multiply by 2.5417464519 to convert [e a0] to [Debye]
 Dipole X            :          0.0000000            0.0000000            0.0000000
 Dipole Y            :          0.0000000            0.0000000            0.0000000
 Dipole Z            :          0.0000000            0.0000000            0.0000000
 Magnitude           :                                                    0.0000000

 L = 2.  Multiply by 1.3450342976 to convert [e a0^2] to [Debye ang]
 Quadrupole XX       :         -1.9184538            0.0000000           -1.9184538
 Quadrupole XY       :          0.0000000            0.0000000            0.0000000
 Quadrupole XZ       :          0.0000000            0.0000000            0.0000000
 Quadrupole YY       :         -1.9184538            0.0000000           -1.9184538
 Quadrupole YZ       :          0.0000000            0.0000000            0.0000000
 Quadrupole ZZ       :         -3.3442375            2.2170203           -1.1272172
 Traceless XX        :          0.4752612           -0.7390068           -0.2637455
 Traceless YY        :          0.4752612           -0.7390068           -0.2637455
 Traceless ZZ        :         -0.9505224            1.4780135            0.5274911

 ------------------------------------------------------------------------------------
  ==> Computing MBIS Charges <==

  Electron Count from Grid (Expected Number):  2.00000 ( 2.00000)
  Difference: -0.00000

  MBIS Charges: (a.u.)
   Center  Symbol  Z      Pop.       Charge
      1       H    1    1.000000    0.000000
      2       H    1    1.000000    0.000000

  MBIS Dipoles: [e a0]
   Center  Symbol  Z        X           Y           Z
      1       H    1   -0.000000    0.000000   -0.147499
      2       H    1   -0.000000    0.000000    0.147499

  MBIS Quadrupoles: [e a0^2]
   Center  Symbol  Z      XX        XY        XZ        YY        YZ        ZZ
      1       H    1   -0.9592   -0.0000    0.0000   -0.9592   -0.0000   -0.8742
      2       H    1   -0.9592   -0.0000   -0.0000   -0.9592    0.0000   -0.8742

  MBIS Octupoles: [e a0^3]
   Center  Symbol  Z      XXX       XXY       XXZ       XYY       XYZ       XZZ       YYY       YYZ       YZZ       ZZZ
      1       H    1   -0.0000    0.0000   -0.1344    0.0000    0.0000   -0.0000    0.0000   -0.1344    0.0000   -0.2364
      2       H    1   -0.0000    0.0000    0.1344   -0.0000   -0.0000    0.0000    0.0000    0.1344    0.0000    0.2364

  MBIS Radial Moments:
   Center  Symbol  Z      [a0^2]      [a0^3]      [a0^4]
      1       H    1    2.792654    6.713392   19.327094
      2       H    1    2.792654    6.713392   19.327094

  MBIS Valence Widths: [a0]
   Center  Symbol  Z     Width
      1       H    1    0.483484
      2       H    1    0.483484

*** tstop() called on Mac.lan at Sun Aug 10 17:00:06 2025
Module time:
	user time   =       0.45 seconds =       0.01 minutes
	system time =       1.55 seconds =       0.03 minutes
	total time  =          0 seconds =       0.00 minutes
Total time:
	user time   =       1.62 seconds =       0.03 minutes
	system time =       3.47 seconds =       0.06 minutes
	total time  =          0 seconds =       0.00 minutes

    Psi4 stopped on: Sunday, 10 August 2025 05:00PM
    Psi4 wall time for execution: 0:00:00.78

*** Psi4 exiting successfully. Buy a developer a beer!
