                               Psi4 1.9.1 release

  ==> Input File <==

--------------------------------------------------------------------------
molecule {
0 3
C           0.000000           0.000000           0.000000
C           0.000000           0.000000           0.781085
}

set {
basis              cc-pvtz
reference          uks
maxiter            500
DAMPING_PERCENTAGE 1
E_CONVERGENCE      1.0E-8
D_CONVERGENCE      1.0E-8
DIIS_MAX_VECS      400
MBIS_MAXITER       8000
guess              read
}

E, wfn = energy('b3lyp', restart_file='last_wfn', return_wfn=True)
properties('b3lyp','MBIS_CHARGES', wfn=wfn)
wfn.to_file('last_wfn')
--------------------------------------------------------------------------

    Molecular point group: d2h
  Charge       = 0
  Multiplicity = 3
  Basis Set: CC-PVTZ
    Blend: CC-PVTZ
  Basis Set: (CC-PVTZ AUX)
    Blend: CC-PVTZ-JKFIT
  @DF-UKS Final Energy:   -75.07344886758662
    Total Energy =                        -75.0734488675866203
 Dipole X            :          0.0000000            0.0000000            0.0000000
 Dipole Y            :          0.0000000            0.0000000            0.0000000
 Dipole Z            :          0.0000000            0.0000000            0.0000000
 Magnitude           :                                                    0.0000000
    Molecular point group: d2h

    Geometry (in Angstrom), charge = 0, multiplicity = 3:

       Center              X                  Y                   Z               Mass
    ------------   -----------------  -----------------  -----------------  -----------------
         C            0.000000000000     0.000000000000    -0.390542500000    12.000000000000
         C            0.000000000000     0.000000000000     0.390542500000    12.000000000000

  Charge       = 0
  Multiplicity = 3
  Basis Set: CC-PVTZ
    Blend: CC-PVTZ
  Basis Set: (CC-PVTZ AUX)
    Blend: CC-PVTZ-JKFIT

    Orbital Energies [Eh]
    ---------------------

    Alpha Occupied:

       1Ag   -10.241333     1B1u  -10.148072     2Ag    -0.798568
       1B3u   -0.451564     1B2u   -0.451564     2B1u   -0.369965
       3Ag    -0.363316

    Alpha Virtual:

       1B3g    0.145230     1B2g    0.145230     3B1u    0.181523
       2B3u    0.233052     2B2u    0.233052     4Ag     0.236510
       5Ag     0.384284     2B3g    0.477797     2B2g    0.477797
       1B1g    0.595816     6Ag     0.595816     4B1u    0.648670
       3B3u    0.907528     3B2u    0.907528     5B1u    0.949550
       1Au     0.963441     6B1u    0.963441     7Ag     1.042539
       3B2g    1.188572     3B3g    1.188572     4B3u    1.740000
       4B2u    1.740000     8Ag     2.230666     7B1u    2.286181
       5B3u    2.458375     5B2u    2.458375     4B2g    2.476922
       4B3g    2.476922     2B1g    2.524791     9Ag     2.524791
       8B1u    2.657255     6B3u    2.729829     6B2u    2.729829
       2Au     2.876830     9B1u    2.876830    10Ag     2.921654
       5B2g    3.138139     5B3g    3.138139     3B1g    3.144829
      11Ag     3.144829     6B2g    3.177697     6B3g    3.177697
      12Ag     3.501737    10B1u    3.765088     7B3u    4.305537
       7B2u    4.305537     3Au     4.489508    11B1u    4.489508
       7B2g    5.686973     7B3g    5.686973    13Ag     5.760481
      12B1u    6.299886    13B1u   19.860812

    Beta Occupied:

       1Ag   -10.215050     1B1u  -10.124166     2Ag    -0.750985
       1B3u   -0.424322     1B2u   -0.424322

    Beta Virtual:

       2B1u   -0.158157     3Ag    -0.129928     1B3g    0.177502
       1B2g    0.177502     3B1u    0.215024     2B3u    0.239690
       2B2u    0.239690     4Ag     0.276177     5Ag     0.436587
       2B3g    0.516195     2B2g    0.516195     1B1g    0.604147
       6Ag     0.604148     4B1u    0.695589     3B3u    0.958432
       3B2u    0.958432     1Au     0.983892     5B1u    0.983893
       6B1u    1.015769     7Ag     1.115114     3B2g    1.222914
       3B3g    1.222914     4B3u    1.755465     4B2u    1.755465
       8Ag     2.281865     7B1u    2.418123     5B3u    2.467083
       5B2u    2.467083     4B2g    2.506427     4B3g    2.506427
       2B1g    2.534299     9Ag     2.534300     8B1u    2.717113
       6B3u    2.837693     6B2u    2.837693     2Au     2.936338
       9B1u    2.936342    10Ag     3.056343     5B2g    3.201602
       5B3g    3.201602     3B1g    3.204092    11Ag     3.204096
       6B2g    3.231150     6B3g    3.231150    12Ag     3.571311
      10B1u    3.864192     7B3u    4.368844     7B2u    4.368844
       3Au     4.519960    11B1u    4.519964     7B2g    5.751369
       7B3g    5.751369    13Ag     5.825703    12B1u    6.384036
      13B1u   19.905551

    Final Occupation by Irrep:
             Ag   B1g   B2g   B3g    Au   B1u   B2u   B3u
    DOCC [     2,    0,    0,    0,    0,    1,    1,    1 ]
    SOCC [     1,    0,    0,    0,    0,    1,    0,    0 ]
    NA   [     3,    0,    0,    0,    0,    2,    1,    1 ]
    NB   [     2,    0,    0,    0,    0,    1,    1,    1 ]

  @DF-UKS Final Energy:   -75.07344886685861

   => Energetics <=

    Nuclear Repulsion Energy =             24.3896369589993363
    One-Electron Energy =                -147.6071852201419574
    Two-Electron Energy =                  57.2579895437717568
    DFT Exchange-Correlation Energy =      -9.1138901494877445
    Empirical Dispersion Energy =           0.0000000000000000
    VV10 Nonlocal Energy =                  0.0000000000000000
    Total Energy =                        -75.0734488668586124

  UHF NO Occupations:
  HONO-2 :    2 Ag 1.9995304
  HONO-1 :    2B1u 1.0000000
  HONO-0 :    3 Ag 1.0000000
  LUNO+0 :    4 Ag 0.0004696
  LUNO+1 :    2B3u 0.0002937
  LUNO+2 :    2B2u 0.0002937
  LUNO+3 :    5 Ag 0.0000011

Computation Completed

Properties will be evaluated at   0.000000,   0.000000,   0.000000 [a0]

Properties computed using the B3LYP density matrix

 Multipole Moments:

 ------------------------------------------------------------------------------------
     Multipole            Electronic (a.u.)      Nuclear  (a.u.)        Total (a.u.)
 ------------------------------------------------------------------------------------

 L = 1.  Multiply by 2.5417464519 to convert [e a0] to [Debye]
 Dipole X            :          0.0000000            0.0000000            0.0000000
 Dipole Y            :          0.0000000            0.0000000            0.0000000
 Dipole Z            :          0.0000000            0.0000000            0.0000000
 Magnitude           :                                                    0.0000000

 L = 2.  Multiply by 1.3450342976 to convert [e a0^2] to [Debye ang]
 Quadrupole XX       :         -7.3327100            0.0000000           -7.3327100
 Quadrupole XY       :          0.0000000            0.0000000            0.0000000
 Quadrupole XZ       :          0.0000000            0.0000000            0.0000000
 Quadrupole YY       :         -7.3327100            0.0000000           -7.3327100
 Quadrupole YZ       :          0.0000000            0.0000000            0.0000000
 Quadrupole ZZ       :        -13.4704463            6.5360533           -6.9343930
 Traceless XX        :          2.0459121           -2.1786844           -0.1327723
 Traceless YY        :          2.0459121           -2.1786844           -0.1327723
 Traceless ZZ        :         -4.0918242            4.3573689            0.2655446

 ------------------------------------------------------------------------------------
  ==> Computing MBIS Charges <==

  Electron Count from Grid (Expected Number): 12.00000 (12.00000)
  Difference: -0.00000

  MBIS Charges: (a.u.)
   Center  Symbol  Z      Pop.       Charge
      1       C    6    5.999999    0.000001
      2       C    6    5.999999    0.000001

  MBIS Dipoles: [e a0]
   Center  Symbol  Z        X           Y           Z
      1       C    6   -0.000000    0.000000   -0.250917
      2       C    6   -0.000000    0.000000    0.250917

  MBIS Quadrupoles: [e a0^2]
   Center  Symbol  Z      XX        XY        XZ        YY        YZ        ZZ
      1       C    6   -3.6664    0.0000   -0.0000   -3.6664   -0.0000   -3.8376
      2       C    6   -3.6664    0.0000   -0.0000   -3.6664    0.0000   -3.8376

  MBIS Octupoles: [e a0^3]
   Center  Symbol  Z      XXX       XXY       XXZ       XYY       XYZ       XZZ       YYY       YYZ       YZZ       ZZZ
      1       C    6   -0.0000   -0.0000   -0.0813   -0.0000    0.0000   -0.0000    0.0000   -0.0813    0.0000    0.3085
      2       C    6   -0.0000   -0.0000    0.0813   -0.0000   -0.0000   -0.0000    0.0000    0.0813    0.0000   -0.3085

  MBIS Radial Moments:
   Center  Symbol  Z      [a0^2]      [a0^3]      [a0^4]
      1       C    6   11.170269   25.159741   68.586568
      2       C    6   11.170269   25.159741   68.586568

  MBIS Valence Widths: [a0]
   Center  Symbol  Z     Width
      1       C    6    0.461477
      2       C    6    0.461477

*** tstop() called on Mac.lan at Sun Aug 10 17:04:02 2025
Module time:
	user time   =       4.20 seconds =       0.07 minutes
	system time =       2.40 seconds =       0.04 minutes
	total time  =          1 seconds =       0.02 minutes
Total time:
	user time   =      18.08 seconds =       0.30 minutes
	system time =       4.66 seconds =       0.08 minutes
	total time  =          2 seconds =       0.03 minutes

    Psi4 stopped on: Sunday, 10 August 2025 05:04PM
    Psi4 wall time for execution: 0:00:02.21

*** Psi4 exiting successfully. Buy a developer a beer!
