                               Psi4 1.9.1 release

  ==> Input File <==

--------------------------------------------------------------------------
molecule {
0 3
O           0.000000           0.000000           0.000000
O           0.000000           0.000000           0.789940
}

set {
basis              cc-pvtz
reference          uks
maxiter            500
DAMPING_PERCENTAGE 1
E_CONVERGENCE      1.0E-8
D_CONVERGENCE      1.0E-8
DIIS_MAX_VECS      400
MBIS_MAXITER       8000
guess              read
}

E, wfn = energy('b3lyp', restart_file='last_wfn', return_wfn=True)
properties('b3lyp','MBIS_CHARGES', wfn=wfn)
wfn.to_file('last_wfn')
--------------------------------------------------------------------------

    Molecular point group: d2h
  Charge       = 0
  Multiplicity = 3
  Basis Set: CC-PVTZ
    Blend: CC-PVTZ
  Basis Set: (CC-PVTZ AUX)
    Blend: CC-PVTZ-JKFIT
  @DF-UKS Final Energy:  -149.59457031674074
    Total Energy =                       -149.5945703167407430
 Dipole X            :          0.0000000            0.0000000            0.0000000
 Dipole Y            :          0.0000000            0.0000000            0.0000000
 Dipole Z            :          0.0000000            0.0000000            0.0000000
 Magnitude           :                                                    0.0000000
    Molecular point group: d2h

    Geometry (in Angstrom), charge = 0, multiplicity = 3:

       Center              X                  Y                   Z               Mass
    ------------   -----------------  -----------------  -----------------  -----------------
         O            0.000000000000     0.000000000000    -0.394970000000    15.994914619570
         O            0.000000000000     0.000000000000     0.394970000000    15.994914619570

  Charge       = 0
  Multiplicity = 3
  Basis Set: CC-PVTZ
    Blend: CC-PVTZ
  Basis Set: (CC-PVTZ AUX)
    Blend: CC-PVTZ-JKFIT

    Orbital Energies [Eh]
    ---------------------

    Alpha Occupied:

       1Ag   -19.259357     1B1u  -19.245887     2Ag    -1.764884
       1B2u   -0.827140     1B3u   -0.827140     2B1u   -0.715723
       3Ag    -0.646892     1B2g   -0.083155     1B3g   -0.083155

    Alpha Virtual:

       3B1u    0.341377     2B2u    0.412743     2B3u    0.412743
       4Ag     0.477033     2B3g    0.652110     2B2g    0.652110
       5Ag     0.653661     1B1g    1.102772     6Ag     1.102772
       4B1u    1.118290     5B1u    1.415647     3B2u    1.626292
       3B3u    1.626292     1Au     1.789791     6B1u    1.789791
       7Ag     2.053585     3B3g    2.250372     3B2g    2.250372
       7B1u    3.071254     4B2u    3.300106     4B3u    3.300106
       8Ag     3.991966     4B3g    4.085993     4B2g    4.085993
       8B1u    4.430709     5B3u    4.528035     5B2u    4.528035
       2B1g    4.631192     9Ag     4.631192     6B3u    5.108402
       6B2u    5.108402     5B2g    5.504621     5B3g    5.504621
      10Ag     5.588363     6B3g    5.758803     6B2g    5.758803
      11Ag     5.988397     3B1g    5.988397     9B1u    6.071562
       2Au     6.071563    12Ag     6.253381    10B1u    6.673664
       7B3u    7.028964     7B2u    7.028964     3Au     7.075801
      11B1u    7.075801    12B1u    8.598843     7B2g    9.593774
       7B3g    9.593774    13Ag    10.525508    13B1u   30.550568

    Beta Occupied:

       1Ag   -19.233535     1B1u  -19.219697     2Ag    -1.732967
       1B2u   -0.744309     1B3u   -0.744309     2B1u   -0.632010
       3Ag    -0.593281

    Beta Virtual:

       1B2g    0.099087     1B3g    0.099087     3B1u    0.355353
       2B2u    0.437094     2B3u    0.437094     4Ag     0.485837
       5Ag     0.680371     2B3g    0.708726     2B2g    0.708726
       6Ag     1.140771     1B1g    1.140772     4B1u    1.154024
       5B1u    1.461382     3B2u    1.670452     3B3u    1.670452
       1Au     1.859364     6B1u    1.859364     7Ag     2.070744
       3B3g    2.294404     3B2g    2.294404     7B1u    3.103998
       4B2u    3.357287     4B3u    3.357287     8Ag     4.016730
       4B3g    4.153249     4B2g    4.153249     8B1u    4.482814
       5B3u    4.580719     5B2u    4.580719     9Ag     4.663142
       2B1g    4.663142     6B3u    5.152660     6B2u    5.152660
       5B2g    5.578524     5B3g    5.578524    10Ag     5.618263
       6B3g    5.803291     6B2g    5.803291    11Ag     6.079543
       3B1g    6.079544     9B1u    6.163513     2Au     6.163514
      12Ag     6.287113    10B1u    6.709507     7B3u    7.070269
       7B2u    7.070269    11B1u    7.135010     3Au     7.135010
      12B1u    8.629207     7B2g    9.644711     7B3g    9.644711
      13Ag    10.569009    13B1u   30.583101

    Final Occupation by Irrep:
             Ag   B1g   B2g   B3g    Au   B1u   B2u   B3u
    DOCC [     3,    0,    0,    0,    0,    2,    1,    1 ]
    SOCC [     0,    0,    1,    1,    0,    0,    0,    0 ]
    NA   [     3,    0,    1,    1,    0,    2,    1,    1 ]
    NB   [     3,    0,    0,    0,    0,    2,    1,    1 ]

  @DF-UKS Final Energy:  -149.59457031685037

   => Energetics <=

    Nuclear Repulsion Energy =             42.8733087106362589
    One-Electron Energy =                -288.3317825302414121
    Two-Electron Energy =                 110.1665767122365622
    DFT Exchange-Correlation Energy =     -14.3026732094817426
    Empirical Dispersion Energy =           0.0000000000000000
    VV10 Nonlocal Energy =                  0.0000000000000000
    Total Energy =                       -149.5945703168503371

  UHF NO Occupations:
  HONO-2 :    2B1u 1.9995865
  HONO-1 :    1B2g 1.0000000
  HONO-0 :    1B3g 1.0000000
  LUNO+0 :    3B1u 0.0004135
  LUNO+1 :    2B3u 0.0003394
  LUNO+2 :    2B2u 0.0003394
  LUNO+3 :    4 Ag 0.0001590

Computation Completed

Properties will be evaluated at   0.000000,   0.000000,   0.000000 [a0]

Properties computed using the B3LYP density matrix

 Multipole Moments:

 ------------------------------------------------------------------------------------
     Multipole            Electronic (a.u.)      Nuclear  (a.u.)        Total (a.u.)
 ------------------------------------------------------------------------------------

 L = 1.  Multiply by 2.5417464519 to convert [e a0] to [Debye]
 Dipole X            :          0.0000000            0.0000000            0.0000000
 Dipole Y            :          0.0000000            0.0000000            0.0000000
 Dipole Z            :          0.0000000            0.0000000            0.0000000
 Magnitude           :                                                    0.0000000

 L = 2.  Multiply by 1.3450342976 to convert [e a0^2] to [Debye ang]
 Quadrupole XX       :         -6.7648940            0.0000000           -6.7648940
 Quadrupole XY       :          0.0000000            0.0000000            0.0000000
 Quadrupole XZ       :          0.0000000            0.0000000            0.0000000
 Quadrupole YY       :         -6.7648940            0.0000000           -6.7648940
 Quadrupole YZ       :          0.0000000            0.0000000            0.0000000
 Quadrupole ZZ       :        -17.1531191            8.9134521           -8.2396670
 Traceless XX        :          3.4627417           -2.9711507            0.4915910
 Traceless YY        :          3.4627417           -2.9711507            0.4915910
 Traceless ZZ        :         -6.9254834            5.9423014           -0.9831820

 ------------------------------------------------------------------------------------
  ==> Computing MBIS Charges <==

  Electron Count from Grid (Expected Number): 16.00000 (16.00000)
  Difference: -0.00000

  MBIS Charges: (a.u.)
   Center  Symbol  Z      Pop.       Charge
      1       O    8    8.000000    0.000000
      2       O    8    8.000000    0.000000

  MBIS Dipoles: [e a0]
   Center  Symbol  Z        X           Y           Z
      1       O    8   -0.000000   -0.000000    0.243724
      2       O    8    0.000000    0.000000   -0.243724

  MBIS Quadrupoles: [e a0^2]
   Center  Symbol  Z      XX        XY        XZ        YY        YZ        ZZ
      1       O    8   -3.3824    0.0000    0.0000   -3.3824   -0.0000   -3.7560
      2       O    8   -3.3824    0.0000    0.0000   -3.3824    0.0000   -3.7560

  MBIS Octupoles: [e a0^3]
   Center  Symbol  Z      XXX       XXY       XXZ       XYY       XYZ       XZZ       YYY       YYZ       YZZ       ZZZ
      1       O    8   -0.0000   -0.0000    0.4345   -0.0000   -0.0000   -0.0000    0.0000    0.4345    0.0000    0.3031
      2       O    8   -0.0000   -0.0000   -0.4345   -0.0000    0.0000   -0.0000    0.0000   -0.4345    0.0000   -0.3031

  MBIS Radial Moments:
   Center  Symbol  Z      [a0^2]      [a0^3]      [a0^4]
      1       O    8   10.520904   19.442705   43.587060
      2       O    8   10.520904   19.442705   43.587060

  MBIS Valence Widths: [a0]
   Center  Symbol  Z     Width
      1       O    8    0.369598
      2       O    8    0.369598

*** tstop() called on Mac.lan at Sun Aug 10 17:01:25 2025
Module time:
	user time   =       5.10 seconds =       0.08 minutes
	system time =       2.73 seconds =       0.05 minutes
	total time  =          1 seconds =       0.02 minutes
Total time:
	user time   =      19.22 seconds =       0.32 minutes
	system time =       4.92 seconds =       0.08 minutes
	total time  =          3 seconds =       0.05 minutes

    Psi4 stopped on: Sunday, 10 August 2025 05:01PM
    Psi4 wall time for execution: 0:00:02.40

*** Psi4 exiting successfully. Buy a developer a beer!
