                               Psi4 1.9.1 release

  ==> Input File <==

--------------------------------------------------------------------------
molecule {
0 3
C           0.000000           0.000000           0.000000
C           0.000000           0.000000           0.948461
}

set {
basis              cc-pvtz
reference          uks
maxiter            500
DAMPING_PERCENTAGE 1
E_CONVERGENCE      1.0E-8
D_CONVERGENCE      1.0E-8
DIIS_MAX_VECS      400
MBIS_MAXITER       8000
guess              read
}

E, wfn = energy('b3lyp', restart_file='last_wfn', return_wfn=True)
properties('b3lyp','MBIS_CHARGES', wfn=wfn)
wfn.to_file('last_wfn')
--------------------------------------------------------------------------

    Molecular point group: d2h
  Charge       = 0
  Multiplicity = 3
  Basis Set: CC-PVTZ
    Blend: CC-PVTZ
  Basis Set: (CC-PVTZ AUX)
    Blend: CC-PVTZ-JKFIT
  @DF-UKS Final Energy:   -75.62654548326847
    Total Energy =                        -75.6265454832684725
 Dipole X            :          0.0000000            0.0000000            0.0000000
 Dipole Y            :          0.0000000            0.0000000            0.0000000
 Dipole Z            :          0.0000000            0.0000000            0.0000000
 Magnitude           :                                                    0.0000000
    Molecular point group: d2h

    Geometry (in Angstrom), charge = 0, multiplicity = 3:

       Center              X                  Y                   Z               Mass
    ------------   -----------------  -----------------  -----------------  -----------------
         C            0.000000000000     0.000000000000    -0.474230500000    12.000000000000
         C            0.000000000000     0.000000000000     0.474230500000    12.000000000000

  Charge       = 0
  Multiplicity = 3
  Basis Set: CC-PVTZ
    Blend: CC-PVTZ
  Basis Set: (CC-PVTZ AUX)
    Blend: CC-PVTZ-JKFIT

    Orbital Energies [Eh]
    ---------------------

    Alpha Occupied:

       1Ag   -10.240081     1B1u  -10.217818     2Ag    -0.928639
       1B3u   -0.475974     1B2u   -0.429942     2B1u   -0.390738
       3Ag    -0.366447

    Alpha Virtual:

       1B2g    0.066216     1B3g    0.089528     3B1u    0.186954
       2B3u    0.221101     2B2u    0.236566     4Ag     0.247207
       5Ag     0.346767     2B2g    0.401075     2B3g    0.419537
       1B1g    0.540396     6Ag     0.541265     4B1u    0.598376
       3B3u    0.841763     3B2u    0.863622     5B1u    0.869586
       1Au     0.914721     6B1u    0.917571     7Ag     1.078879
       3B2g    1.138585     3B3g    1.153905     4B3u    1.770156
       4B2u    1.804344     7B1u    1.956552     8Ag     2.179054
       4B2g    2.332920     4B3g    2.361214     5B3u    2.393154
       5B2u    2.393314     8B1u    2.425194     2B1g    2.428843
       9Ag     2.430813     6B3u    2.633390     6B2u    2.665495
      10Ag     2.828510     5B2g    2.946511     2Au     2.951119
       9B1u    2.951325     5B3g    2.969438     3B1g    3.012328
      11Ag     3.013362     6B2g    3.018978     6B3g    3.019564
      12Ag     3.456070    10B1u    3.563845     7B3u    3.810491
       7B2u    3.839766     3Au     3.998923    11B1u    3.999380
      12B1u    4.977126     7B2g    5.228671     7B3g    5.260318
      13Ag     6.096487    13B1u   18.114589

    Beta Occupied:

       1Ag   -10.220104     1B1u  -10.199258     2Ag    -0.843751
       1B2u   -0.406353     2B1u   -0.302590

    Beta Virtual:

       1B3u   -0.295069     3Ag    -0.211905     1B3g    0.109592
       1B2g    0.121220     3B1u    0.200005     2B2u    0.243242
       2B3u    0.251116     4Ag     0.266669     5Ag     0.385262
       2B3g    0.433738     2B2g    0.447065     1B1g    0.571427
       6Ag     0.574361     4B1u    0.624143     3B2u    0.889517
       3B3u    0.889760     5B1u    0.911772     1Au     0.937637
       6B1u    0.939408     7Ag     1.118798     3B3g    1.170368
       3B2g    1.174331     4B2u    1.821105     4B3u    1.834248
       7B1u    2.025988     8Ag     2.228897     4B3g    2.376388
       4B2g    2.384459     5B2u    2.432296     5B3u    2.433516
       8B1u    2.469495     2B1g    2.475474     9Ag     2.479950
       6B2u    2.712528     6B3u    2.724411    10Ag     2.901306
       2Au     2.999874     9B1u    3.003977     5B3g    3.014931
       5B2g    3.017434     6B3g    3.055114     6B2g    3.056409
       3B1g    3.062712    11Ag     3.066695    12Ag     3.498927
      10B1u    3.620862     7B2u    3.875115     7B3u    3.878038
       3Au     4.041786    11B1u    4.045948    12B1u    5.036553
       7B3g    5.295152     7B2g    5.306298    13Ag     6.142923
      13B1u   18.141383

    Final Occupation by Irrep:
             Ag   B1g   B2g   B3g    Au   B1u   B2u   B3u
    DOCC [     2,    0,    0,    0,    0,    2,    1,    0 ]
    SOCC [     1,    0,    0,    0,    0,    0,    0,    1 ]
    NA   [     3,    0,    0,    0,    0,    2,    1,    1 ]
    NB   [     2,    0,    0,    0,    0,    2,    1,    0 ]

  @DF-UKS Final Energy:   -75.62654548767465

   => Energetics <=

    Nuclear Repulsion Energy =             20.0855697641969577
    One-Electron Energy =                -140.0213721358798011
    Two-Electron Energy =                  53.1699057459794915
    DFT Exchange-Correlation Energy =      -8.8606488619712938
    Empirical Dispersion Energy =           0.0000000000000000
    VV10 Nonlocal Energy =                  0.0000000000000000
    Total Energy =                        -75.6265454876746475

  UHF NO Occupations:
  HONO-2 :    2B1u 1.9982601
  HONO-1 :    3 Ag 1.0000000
  HONO-0 :    1B3u 1.0000000
  LUNO+0 :    3B1u 0.0017399
  LUNO+1 :    4 Ag 0.0004106
  LUNO+2 :    2B2u 0.0001136
  LUNO+3 :    5 Ag 0.0000008

Computation Completed

Properties will be evaluated at   0.000000,   0.000000,   0.000000 [a0]

Properties computed using the B3LYP density matrix

 Multipole Moments:

 ------------------------------------------------------------------------------------
     Multipole            Electronic (a.u.)      Nuclear  (a.u.)        Total (a.u.)
 ------------------------------------------------------------------------------------

 L = 1.  Multiply by 2.5417464519 to convert [e a0] to [Debye]
 Dipole X            :          0.0000000            0.0000000            0.0000000
 Dipole Y            :          0.0000000            0.0000000            0.0000000
 Dipole Z            :          0.0000000            0.0000000            0.0000000
 Magnitude           :                                                    0.0000000

 L = 2.  Multiply by 1.3450342976 to convert [e a0^2] to [Debye ang]
 Quadrupole XX       :         -7.0527834            0.0000000           -7.0527834
 Quadrupole XY       :          0.0000000            0.0000000            0.0000000
 Quadrupole XZ       :          0.0000000            0.0000000            0.0000000
 Quadrupole YY       :         -8.1723535            0.0000000           -8.1723535
 Quadrupole YZ       :          0.0000000            0.0000000            0.0000000
 Quadrupole ZZ       :        -18.9412905            9.6373569           -9.3039335
 Traceless XX        :          4.3360257           -3.2124523            1.1235734
 Traceless YY        :          3.2164556           -3.2124523            0.0040033
 Traceless ZZ        :         -7.5524814            6.4249046           -1.1275767

 ------------------------------------------------------------------------------------
  ==> Computing MBIS Charges <==

  Electron Count from Grid (Expected Number): 12.00000 (12.00000)
  Difference:  0.00000

  MBIS Charges: (a.u.)
   Center  Symbol  Z      Pop.       Charge
      1       C    6    6.000000   -0.000000
      2       C    6    6.000000   -0.000000

  MBIS Dipoles: [e a0]
   Center  Symbol  Z        X           Y           Z
      1       C    6    0.000000    0.000000    0.059337
      2       C    6   -0.000000    0.000000   -0.059337

  MBIS Quadrupoles: [e a0^2]
   Center  Symbol  Z      XX        XY        XZ        YY        YZ        ZZ
      1       C    6   -3.5264   -0.0000    0.0000   -4.0862   -0.0000   -4.5456
      2       C    6   -3.5264    0.0000   -0.0000   -4.0862    0.0000   -4.5456

  MBIS Octupoles: [e a0^3]
   Center  Symbol  Z      XXX       XXY       XXZ       XYY       XYZ       XZZ       YYY       YYZ       YZZ       ZZZ
      1       C    6   -0.0000   -0.0000    0.3344   -0.0000    0.0000   -0.0000    0.0000    0.1792    0.0000    0.8466
      2       C    6   -0.0000   -0.0000   -0.3344   -0.0000   -0.0000   -0.0000    0.0000   -0.1792    0.0000   -0.8466

  MBIS Radial Moments:
   Center  Symbol  Z      [a0^2]      [a0^3]      [a0^4]
      1       C    6   12.158184   28.474602   80.264788
      2       C    6   12.158184   28.474602   80.264788

  MBIS Valence Widths: [a0]
   Center  Symbol  Z     Width
      1       C    6    0.483795
      2       C    6    0.483795

*** tstop() called on Mac.lan at Sun Aug 10 17:03:44 2025
Module time:
	user time   =       3.88 seconds =       0.06 minutes
	system time =       2.69 seconds =       0.04 minutes
	total time  =          1 seconds =       0.02 minutes
Total time:
	user time   =      14.83 seconds =       0.25 minutes
	system time =       4.90 seconds =       0.08 minutes
	total time  =          2 seconds =       0.03 minutes

    Psi4 stopped on: Sunday, 10 August 2025 05:03PM
    Psi4 wall time for execution: 0:00:01.93

*** Psi4 exiting successfully. Buy a developer a beer!
