                               Psi4 1.9.1 release

  ==> Input File <==

--------------------------------------------------------------------------
molecule {
0 3
C           0.000000           0.000000           0.000000
C           0.000000           0.000000           1.259301
}

set {
basis              cc-pvtz
reference          uks
maxiter            500
DAMPING_PERCENTAGE 1
E_CONVERGENCE      1.0E-8
D_CONVERGENCE      1.0E-8
DIIS_MAX_VECS      400
MBIS_MAXITER       8000
guess              read
}

E, wfn = energy('b3lyp', restart_file='last_wfn', return_wfn=True)
properties('b3lyp','MBIS_CHARGES', wfn=wfn)
wfn.to_file('last_wfn')
--------------------------------------------------------------------------

    Molecular point group: d2h
  Charge       = 0
  Multiplicity = 3
  Basis Set: CC-PVTZ
    Blend: CC-PVTZ
  Basis Set: (CC-PVTZ AUX)
    Blend: CC-PVTZ-JKFIT
  @DF-UKS Final Energy:   -75.94183390791432
    Total Energy =                        -75.9418339079143152
 Dipole X            :          0.0000000            0.0000000            0.0000000
 Dipole Y            :          0.0000000            0.0000000            0.0000000
 Dipole Z            :          0.0000000           -0.0000000           -0.0000000
 Magnitude           :                                                    0.0000000
    Molecular point group: d2h

    Geometry (in Angstrom), charge = 0, multiplicity = 3:

       Center              X                  Y                   Z               Mass
    ------------   -----------------  -----------------  -----------------  -----------------
         C            0.000000000000     0.000000000000    -0.629650500000    12.000000000000
         C            0.000000000000     0.000000000000     0.629650500000    12.000000000000

  Charge       = 0
  Multiplicity = 3
  Basis Set: CC-PVTZ
    Blend: CC-PVTZ
  Basis Set: (CC-PVTZ AUX)
    Blend: CC-PVTZ-JKFIT

    Orbital Energies [Eh]
    ---------------------

    Alpha Occupied:

       1Ag   -10.283586     1B1u  -10.281861     2Ag    -0.844891
       2B1u   -0.447986     1B3u   -0.382937     3Ag    -0.360372
       1B2u   -0.346673

    Alpha Virtual:

       1B2g   -0.038603     1B3g   -0.011488     3B1u    0.181371
       2B3u    0.251764     4Ag     0.265187     2B2u    0.267073
       5Ag     0.324844     2B2g    0.359918     2B3g    0.374038
       4B1u    0.495705     1B1g    0.542382     6Ag     0.543132
       5B1u    0.629128     3B3u    0.724350     3B2u    0.748236
       1Au     0.848525     6B1u    0.849104     3B2g    1.117972
       3B3g    1.133343     7Ag     1.137092     7B1u    1.348878
       4B3u    1.880572     4B2u    1.907428     8Ag     2.016058
       4B2g    2.144832     4B3g    2.173324     8B1u    2.323713
       2B1g    2.383343     9Ag     2.384277     5B3u    2.426275
       5B2u    2.456470     6B3u    2.466712     6B2u    2.467071
      10Ag     2.688580     5B2g    2.840548     5B3g    2.840669
       3B1g    2.898911    11Ag     2.899444     6B2g    2.964632
       6B3g    2.984157     9B1u    2.988695     2Au     2.988881
      10B1u    3.239063     7B3u    3.407124     7B2u    3.432766
       3Au     3.461398    11B1u    3.462340    12Ag     3.606342
      12B1u    3.933730     7B2g    4.530064     7B3g    4.558829
      13Ag     4.708558    13B1u   12.197715

    Beta Occupied:

       1Ag   -10.267023     1B1u  -10.265665     2Ag    -0.775342
       2B1u   -0.358721     1B2u   -0.327557

    Beta Virtual:

       1B3u   -0.230189     3Ag    -0.210170     1B3g    0.010739
       1B2g    0.034227     3B1u    0.193987     2B2u    0.273057
       2B3u    0.282501     4Ag     0.286970     5Ag     0.360958
       2B3g    0.382262     2B2g    0.392411     4B1u    0.548426
       1B1g    0.570915     6Ag     0.573569     5B1u    0.657315
       3B2u    0.776053     3B3u    0.780395     1Au     0.872909
       6B1u    0.874873     3B3g    1.153526     3B2g    1.156316
       7Ag     1.177243     7B1u    1.393909     4B2u    1.920612
       4B3u    1.933667     8Ag     2.063879     4B3g    2.186021
       4B2g    2.195520     8B1u    2.372763     2B1g    2.424502
       9Ag     2.427371     5B2u    2.491244     6B2u    2.501949
       5B3u    2.502520     6B3u    2.504587    10Ag     2.761940
       5B3g    2.875059     5B2g    2.876042     3B1g    2.945973
      11Ag     2.950556     6B3g    3.032680     2Au     3.033349
       9B1u    3.037929     6B2g    3.040408    10B1u    3.296460
       7B2u    3.475718     7B3u    3.481393     3Au     3.503071
      11B1u    3.505993    12Ag     3.648377    12B1u    3.994263
       7B3g    4.589026     7B2g    4.599167    13Ag     4.750871
      13B1u   12.224449

    Final Occupation by Irrep:
             Ag   B1g   B2g   B3g    Au   B1u   B2u   B3u
    DOCC [     2,    0,    0,    0,    0,    2,    1,    0 ]
    SOCC [     1,    0,    0,    0,    0,    0,    0,    1 ]
    NA   [     3,    0,    0,    0,    0,    2,    1,    1 ]
    NB   [     2,    0,    0,    0,    0,    2,    1,    0 ]

  @DF-UKS Final Energy:   -75.94183390795573

   => Energetics <=

    Nuclear Repulsion Energy =             15.1277411707923726
    One-Electron Energy =                -131.0036971409988951
    Two-Electron Energy =                  48.5234301392610661
    DFT Exchange-Correlation Energy =      -8.5893080770102710
    Empirical Dispersion Energy =           0.0000000000000000
    VV10 Nonlocal Energy =                  0.0000000000000000
    Total Energy =                        -75.9418339079557256

  UHF NO Occupations:
  HONO-2 :    2B1u 1.9984839
  HONO-1 :    3 Ag 1.0000000
  HONO-0 :    1B3u 1.0000000
  LUNO+0 :    3B1u 0.0015161
  LUNO+1 :    4 Ag 0.0003722
  LUNO+2 :    2B2u 0.0001490
  LUNO+3 :    4B1u 0.0000006

Computation Completed

Properties will be evaluated at   0.000000,   0.000000,   0.000000 [a0]

Properties computed using the B3LYP density matrix

 Multipole Moments:

 ------------------------------------------------------------------------------------
     Multipole            Electronic (a.u.)      Nuclear  (a.u.)        Total (a.u.)
 ------------------------------------------------------------------------------------

 L = 1.  Multiply by 2.5417464519 to convert [e a0] to [Debye]
 Dipole X            :          0.0000000            0.0000000            0.0000000
 Dipole Y            :          0.0000000            0.0000000            0.0000000
 Dipole Z            :          0.0000000           -0.0000000           -0.0000000
 Magnitude           :                                                    0.0000000

 L = 2.  Multiply by 1.3450342976 to convert [e a0^2] to [Debye ang]
 Quadrupole XX       :         -7.7806773            0.0000000           -7.7806773
 Quadrupole XY       :          0.0000000            0.0000000            0.0000000
 Quadrupole XZ       :          0.0000000            0.0000000            0.0000000
 Quadrupole YY       :         -9.1922755            0.0000000           -9.1922755
 Quadrupole YZ       :          0.0000000            0.0000000            0.0000000
 Quadrupole ZZ       :        -26.1732368           16.9894017           -9.1838351
 Traceless XX        :          6.6013859           -5.6631339            0.9382520
 Traceless YY        :          5.1897877           -5.6631339           -0.4733462
 Traceless ZZ        :        -11.7911736           11.3262678           -0.4649058

 ------------------------------------------------------------------------------------
  ==> Computing MBIS Charges <==

  Electron Count from Grid (Expected Number): 12.00000 (12.00000)
  Difference: -0.00000

  MBIS Charges: (a.u.)
   Center  Symbol  Z      Pop.       Charge
      1       C    6    6.000000    0.000000
      2       C    6    6.000000    0.000000

  MBIS Dipoles: [e a0]
   Center  Symbol  Z        X           Y           Z
      1       C    6   -0.000000    0.000000   -0.041854
      2       C    6   -0.000000    0.000000    0.041854

  MBIS Quadrupoles: [e a0^2]
   Center  Symbol  Z      XX        XY        XZ        YY        YZ        ZZ
      1       C    6   -3.8903    0.0000   -0.0000   -4.5961   -0.0000   -4.6915
      2       C    6   -3.8903    0.0000    0.0000   -4.5961    0.0000   -4.6915

  MBIS Octupoles: [e a0^3]
   Center  Symbol  Z      XXX       XXY       XXZ       XYY       XYZ       XZZ       YYY       YYZ       YZZ       ZZZ
      1       C    6   -0.0000    0.0000    0.0882    0.0000   -0.0000   -0.0000    0.0000   -0.1293    0.0000    0.0133
      2       C    6   -0.0000    0.0000   -0.0882    0.0000    0.0000   -0.0000    0.0000    0.1293    0.0000   -0.0133

  MBIS Radial Moments:
   Center  Symbol  Z      [a0^2]      [a0^3]      [a0^4]
      1       C    6   13.177994   31.778439   91.552524
      2       C    6   13.177994   31.778439   91.552524

  MBIS Valence Widths: [a0]
   Center  Symbol  Z     Width
      1       C    6    0.507295
      2       C    6    0.507295

*** tstop() called on Mac.lan at Sun Aug 10 17:03:11 2025
Module time:
	user time   =       3.39 seconds =       0.06 minutes
	system time =       2.74 seconds =       0.05 minutes
	total time  =          0 seconds =       0.00 minutes
Total time:
	user time   =      16.33 seconds =       0.27 minutes
	system time =       4.88 seconds =       0.08 minutes
	total time  =          2 seconds =       0.03 minutes

    Psi4 stopped on: Sunday, 10 August 2025 05:03PM
    Psi4 wall time for execution: 0:00:02.07

*** Psi4 exiting successfully. Buy a developer a beer!
