                               Psi4 1.9.1 release

  ==> Input File <==

--------------------------------------------------------------------------
molecule {
0 2
N           0.000000           0.000000           0.000000
C           0.000000           0.000000           1.210243
}

set {
basis              cc-pvtz
reference          uks
maxiter            500
DAMPING_PERCENTAGE 1
E_CONVERGENCE      1.0E-8
D_CONVERGENCE      1.0E-8
DIIS_MAX_VECS      400
MBIS_MAXITER       8000
guess              SAP
}

E, wfn = energy('b3lyp', return_wfn=True)
properties('b3lyp','MBIS_CHARGES', wfn=wfn)
wfn.to_file('last_wfn')
--------------------------------------------------------------------------

    Molecular point group: c2v
  Charge       = 0
  Multiplicity = 2
  Basis Set: CC-PVTZ
    Blend: CC-PVTZ
  Basis Set: (CC-PVTZ AUX)
    Blend: CC-PVTZ-JKFIT
  @DF-UKS Final Energy:   -92.74167794079453
    Total Energy =                        -92.7416779407945313
 Dipole X            :          0.0000000            0.0000000            0.0000000
 Dipole Y            :          0.0000000            0.0000000            0.0000000
 Dipole Z            :          0.4882989            0.0016222            0.4899211
 Magnitude           :                                                    0.4899211
    Molecular point group: c2v

    Geometry (in Angstrom), charge = 0, multiplicity = 2:

       Center              X                  Y                   Z               Mass
    ------------   -----------------  -----------------  -----------------  -----------------
         N            0.000000000000     0.000000000000    -0.558507659422    14.003074004430
         C            0.000000000000     0.000000000000     0.651735340578    12.000000000000

  Charge       = 0
  Multiplicity = 2
  Basis Set: CC-PVTZ
    Blend: CC-PVTZ
  Basis Set: (CC-PVTZ AUX)
    Blend: CC-PVTZ-JKFIT

    Orbital Energies [Eh]
    ---------------------

    Alpha Occupied:

       1A1   -14.401577     2A1   -10.308630     3A1    -0.950275
       4A1    -0.514006     5A1    -0.413023     1B1    -0.386022
       1B2    -0.386022

    Alpha Virtual:

       2B1    -0.034049     2B2    -0.034049     6A1     0.164632
       7A1     0.270955     3B1     0.283087     3B2     0.283087
       8A1     0.434892     4B1     0.511453     4B2     0.511453
       9A1     0.544752    10A1     0.620095     1A2     0.620095
       5B1     0.804214     5B2     0.804214    11A1     0.874367
       2A2     1.145615    12A1     1.145615    13A1     1.220625
       6B1     1.487101     6B2     1.487101    14A1     1.721795
       7B1     1.965549     7B2     1.965549    15A1     2.165906
       8B1     2.618743     8B2     2.618743    16A1     2.685944
       3A2     2.685944    17A1     2.750706     9B2     2.753621
       9B1     2.753621    10B2     2.894532    10B1     2.894532
      18A1     2.908428     4A2     2.908429    19A1     3.062256
      11B1     3.368544    11B2     3.368544    20A1     3.759073
      12B1     3.910132    12B2     3.910132     5A2     4.331807
      21A1     4.331808     6A2     4.514820    22A1     4.514824
      13B2     4.756026    13B1     4.756026    23A1     4.878702
      24A1     5.293971    14B1     5.405301    14B2     5.405301
      25A1     5.691120    26A1    11.706419

    Beta Occupied:

       1A1   -14.396420     2A1   -10.293450     3A1    -0.926750
       4A1    -0.446948     1B1    -0.377803     1B2    -0.377803

    Beta Virtual:

       5A1    -0.254543     2B1    -0.012913     2B2    -0.012913
       6A1     0.171990     3B1     0.292157     3B2     0.292157
       7A1     0.309417     8A1     0.445592     4B1     0.512798
       4B2     0.512798     9A1     0.593160     1A2     0.629853
      10A1     0.629853     5B1     0.833984     5B2     0.833984
      11A1     0.886723     2A2     1.147503    12A1     1.147503
      13A1     1.256723     6B1     1.505168     6B2     1.505168
      14A1     1.748818     7B1     1.979707     7B2     1.979707
      15A1     2.216072     8B1     2.634392     8B2     2.634392
       3A2     2.703800    16A1     2.703800     9B2     2.781210
       9B1     2.781210    17A1     2.793363    10B2     2.935584
      10B1     2.935584    18A1     2.945275     4A2     2.945275
      19A1     3.137249    11B1     3.405914    11B2     3.405914
      20A1     3.796074    12B2     3.905111    12B1     3.905111
       5A2     4.334843    21A1     4.334844     6A2     4.519245
      22A1     4.519249    13B2     4.781921    13B1     4.781921
      23A1     4.919232    24A1     5.326292    14B1     5.431424
      14B2     5.431424    25A1     5.705182    26A1    11.725801

    Final Occupation by Irrep:
             A1    A2    B1    B2
    DOCC [     4,    0,    1,    1 ]
    SOCC [     1,    0,    0,    0 ]
    NA   [     5,    0,    1,    1 ]
    NB   [     4,    0,    1,    1 ]

  @DF-UKS Final Energy:   -92.74167794079453

   => Energetics <=

    Nuclear Repulsion Energy =             18.3644465187074033
    One-Electron Energy =                -160.9771679193844989
    Two-Electron Energy =                  59.6681930468161568
    DFT Exchange-Correlation Energy =      -9.7971495869335961
    Empirical Dispersion Energy =           0.0000000000000000
    VV10 Nonlocal Energy =                  0.0000000000000000
    Total Energy =                        -92.7416779407945313

  UHF NO Occupations:
  HONO-2 :    1 B1 1.9985962
  HONO-1 :    1 B2 1.9985962
  HONO-0 :    5 A1 1.0000000
  LUNO+0 :    2 B1 0.0014038
  LUNO+1 :    2 B2 0.0014038
  LUNO+2 :    6 A1 0.0013369
  LUNO+3 :    7 A1 0.0001121

Computation Completed

Properties will be evaluated at   0.000000,   0.000000,   0.000000 [a0]

Properties computed using the B3LYP density matrix

 Multipole Moments:

 ------------------------------------------------------------------------------------
     Multipole            Electronic (a.u.)      Nuclear  (a.u.)        Total (a.u.)
 ------------------------------------------------------------------------------------

 L = 1.  Multiply by 2.5417464519 to convert [e a0] to [Debye]
 Dipole X            :          0.0000000            0.0000000            0.0000000
 Dipole Y            :          0.0000000            0.0000000            0.0000000
 Dipole Z            :          0.4882989            0.0016222            0.4899211
 Magnitude           :                                                    0.4899211

 L = 2.  Multiply by 1.3450342976 to convert [e a0^2] to [Debye ang]
 Quadrupole XX       :         -8.2567013            0.0000000           -8.2567013
 Quadrupole XY       :          0.0000000            0.0000000            0.0000000
 Quadrupole XZ       :          0.0000000            0.0000000            0.0000000
 Quadrupole YY       :         -8.2567013            0.0000000           -8.2567013
 Quadrupole YZ       :          0.0000000            0.0000000            0.0000000
 Quadrupole ZZ       :        -24.6307627           16.8985265           -7.7322362
 Traceless XX        :          5.4580204           -5.6328422           -0.1748217
 Traceless YY        :          5.4580204           -5.6328422           -0.1748217
 Traceless ZZ        :        -10.9160409           11.2656843            0.3496434

 ------------------------------------------------------------------------------------
  ==> Computing MBIS Charges <==

  Electron Count from Grid (Expected Number): 13.00000 (13.00000)
  Difference:  0.00000

  MBIS Charges: (a.u.)
   Center  Symbol  Z      Pop.       Charge
      1       N    7    7.233481   -0.233481
      2       C    6    5.766519    0.233481

  MBIS Dipoles: [e a0]
   Center  Symbol  Z        X           Y           Z
      1       N    7   -0.000000   -0.000000   -0.191955
      2       C    6   -0.000000    0.000000    0.147899

  MBIS Quadrupoles: [e a0^2]
   Center  Symbol  Z      XX        XY        XZ        YY        YZ        ZZ
      1       N    7   -4.2914   -0.0000   -0.0000   -4.2914   -0.0000   -4.4987
      2       C    6   -3.9653    0.0000   -0.0000   -3.9653    0.0000   -4.0971

  MBIS Octupoles: [e a0^3]
   Center  Symbol  Z      XXX       XXY       XXZ       XYY       XYZ       XZZ       YYY       YYZ       YZZ       ZZZ
      1       N    7   -0.0000   -0.0000   -0.2569   -0.0000    0.0000   -0.0000    0.0000   -0.2569    0.0000   -0.5184
      2       C    6   -0.0000   -0.0000    0.1759   -0.0000    0.0000   -0.0000    0.0000    0.1759    0.0000    0.3214

  MBIS Radial Moments:
   Center  Symbol  Z      [a0^2]      [a0^3]      [a0^4]
      1       N    7   13.081518   27.883612   70.945696
      2       C    6   12.027685   28.410612   80.002821

  MBIS Valence Widths: [a0]
   Center  Symbol  Z     Width
      1       N    7    0.445003
      2       C    6    0.498389

*** tstop() called on Mac.lan at Sun Aug 10 17:13:48 2025
Module time:
	user time   =      18.83 seconds =       0.31 minutes
	system time =       2.97 seconds =       0.05 minutes
	total time  =          2 seconds =       0.03 minutes
Total time:
	user time   =      37.45 seconds =       0.62 minutes
	system time =       6.24 seconds =       0.10 minutes
	total time  =          5 seconds =       0.08 minutes

    Psi4 stopped on: Sunday, 10 August 2025 05:13PM
    Psi4 wall time for execution: 0:00:04.16

*** Psi4 exiting successfully. Buy a developer a beer!
