                               Psi4 1.9.1 release

  ==> Input File <==

--------------------------------------------------------------------------
molecule {
0 2
C           0.000000           0.000000           0.000000
H           0.000000           0.000000           1.107647
}

set {
basis              cc-pvtz
reference          uks
maxiter            500
DAMPING_PERCENTAGE 1
E_CONVERGENCE      1.0E-8
D_CONVERGENCE      1.0E-8
DIIS_MAX_VECS      400
MBIS_MAXITER       8000
guess              read
}

E, wfn = energy('b3lyp', restart_file='last_wfn', return_wfn=True)
properties('b3lyp','MBIS_CHARGES', wfn=wfn)
wfn.to_file('last_wfn')
--------------------------------------------------------------------------

    Molecular point group: c2v
  Charge       = 0
  Multiplicity = 2
  Basis Set: CC-PVTZ
    Blend: CC-PVTZ
  Basis Set: (CC-PVTZ AUX)
    Blend: CC-PVTZ-JKFIT
  @DF-UKS Final Energy:   -38.49612771505408
    Total Energy =                        -38.4961277150540795
 Dipole X            :          0.0000000            0.0000000            0.0000000
 Dipole Y            :          0.0000000            0.0000000            0.0000000
 Dipole Z            :         -0.3659936            0.9579329            0.5919392
 Magnitude           :                                                    0.5919392
    Molecular point group: c2v

    Geometry (in Angstrom), charge = 0, multiplicity = 2:

       Center              X                  Y                   Z               Mass
    ------------   -----------------  -----------------  -----------------  -----------------
         C            0.000000000000     0.000000000000    -0.085818679964    12.000000000000
         H            0.000000000000     0.000000000000     1.021828320036     1.007825032230

  Charge       = 0
  Multiplicity = 2
  Basis Set: CC-PVTZ
    Blend: CC-PVTZ
  Basis Set: (CC-PVTZ AUX)
    Blend: CC-PVTZ-JKFIT

    Orbital Energies [Eh]
    ---------------------

    Alpha Occupied:

       1A1   -10.279530     2A1    -0.654269     3A1    -0.324233
       1B1    -0.259476

    Alpha Virtual:

       1B2    -0.147667     4A1     0.059817     5A1     0.283011
       2B1     0.291835     2B2     0.311469     6A1     0.348393
       7A1     0.448711     3B1     0.570281     3B2     0.573730
       1A2     0.655006     8A1     0.660761     9A1     0.954640
       4B1     1.030532     4B2     1.030835    10A1     1.397603
       5B1     1.931962     5B2     1.958034    11A1     2.044224
      12A1     2.184716     2A2     2.520530    13A1     2.524187
       6B1     2.616111     6B2     2.622744     7B1     2.641793
       7B2     2.644346    14A1     2.899661     3A2     2.902032
      15A1     2.922979     8B1     3.051962     8B2     3.059506
      16A1     3.253427     4A2     3.566464    17A1     3.568267
       9B2     3.802050     9B1     3.804532    18A1     4.493531
      10B1     4.705449    10B2     4.706860    19A1     4.767140
      20A1     8.174625

    Beta Occupied:

       1A1   -10.264853     2A1    -0.612234     3A1    -0.303593

    Beta Virtual:

       1B2    -0.131606     1B1    -0.085743     4A1     0.064784
       5A1     0.289881     2B2     0.318902     2B1     0.347384
       6A1     0.360183     7A1     0.463216     3B2     0.575328
       3B1     0.598543     8A1     0.698279     1A2     0.698531
       9A1     0.967343     4B2     1.032275     4B1     1.051831
      10A1     1.409631     5B2     1.969670     5B1     2.013748
      11A1     2.052926    12A1     2.202239     2A2     2.550675
      13A1     2.551014     6B2     2.625761     6B1     2.658610
       7B2     2.700320     7B1     2.701262    14A1     2.921444
       3A2     2.979188    15A1     2.987478     8B2     3.063788
       8B1     3.102335    16A1     3.267079     4A2     3.578588
      17A1     3.579035     9B2     3.798549     9B1     3.808580
      18A1     4.501599    10B2     4.707918    10B1     4.731793
      19A1     4.773192    20A1     8.191198

    Final Occupation by Irrep:
             A1    A2    B1    B2
    DOCC [     3,    0,    0,    0 ]
    SOCC [     0,    0,    1,    0 ]
    NA   [     3,    0,    1,    0 ]
    NB   [     3,    0,    0,    0 ]

  @DF-UKS Final Energy:   -38.49612771461934

   => Energetics <=

    Nuclear Repulsion Energy =              2.8664938053549553
    One-Electron Energy =                 -56.7398146436882769
    Two-Electron Energy =                  19.9297994598976160
    DFT Exchange-Correlation Energy =      -4.5526063361836346
    Empirical Dispersion Energy =           0.0000000000000000
    VV10 Nonlocal Energy =                  0.0000000000000000
    Total Energy =                        -38.4961277146193410

  UHF NO Occupations:
  HONO-2 :    2 A1 1.9998440
  HONO-1 :    3 A1 1.9986822
  HONO-0 :    1 B1 1.0000000
  LUNO+0 :    4 A1 0.0013178
  LUNO+1 :    5 A1 0.0001560
  LUNO+2 :    6 A1 0.0000007
  LUNO+3 :    7 A1 0.0000000

Computation Completed

Properties will be evaluated at   0.000000,   0.000000,   0.000000 [a0]

Properties computed using the B3LYP density matrix

 Multipole Moments:

 ------------------------------------------------------------------------------------
     Multipole            Electronic (a.u.)      Nuclear  (a.u.)        Total (a.u.)
 ------------------------------------------------------------------------------------

 L = 1.  Multiply by 2.5417464519 to convert [e a0] to [Debye]
 Dipole X            :          0.0000000            0.0000000            0.0000000
 Dipole Y            :          0.0000000            0.0000000            0.0000000
 Dipole Z            :         -0.3659936            0.9579329            0.5919392
 Magnitude           :                                                    0.5919392

 L = 2.  Multiply by 1.3450342976 to convert [e a0^2] to [Debye ang]
 Quadrupole XX       :         -5.6924586            0.0000000           -5.6924586
 Quadrupole XY       :          0.0000000            0.0000000            0.0000000
 Quadrupole XZ       :          0.0000000            0.0000000            0.0000000
 Quadrupole YY       :         -4.1951331            0.0000000           -4.1951331
 Quadrupole YZ       :          0.0000000            0.0000000            0.0000000
 Quadrupole ZZ       :         -9.4347460            3.8864691           -5.5482769
 Traceless XX        :          0.7483206           -1.2954897           -0.5471691
 Traceless YY        :          2.2456461           -1.2954897            0.9501564
 Traceless ZZ        :         -2.9939668            2.5909794           -0.4029874

 ------------------------------------------------------------------------------------
  ==> Computing MBIS Charges <==

  Electron Count from Grid (Expected Number):  7.00000 ( 7.00000)
  Difference: -0.00000

  MBIS Charges: (a.u.)
   Center  Symbol  Z      Pop.       Charge
      1       C    6    6.094089   -0.094089
      2       H    1    0.905911    0.094089

  MBIS Dipoles: [e a0]
   Center  Symbol  Z        X           Y           Z
      1       C    6   -0.000000    0.000000    0.347680
      2       H    1    0.000000   -0.000000    0.047317

  MBIS Quadrupoles: [e a0^2]
   Center  Symbol  Z      XX        XY        XZ        YY        YZ        ZZ
      1       C    6   -5.1478    0.0000   -0.0000   -3.7196    0.0000   -5.4274
      2       H    1   -0.5447   -0.0000   -0.0000   -0.4756   -0.0000   -0.5392

  MBIS Octupoles: [e a0^3]
   Center  Symbol  Z      XXX       XXY       XXZ       XYY       XYZ       XZZ       YYY       YYZ       YZZ       ZZZ
      1       C    6    0.0000    0.0000    0.4799   -0.0000   -0.0000   -0.0000   -0.0000    0.5125    0.0000    0.9120
      2       H    1    0.0000   -0.0000    0.0028   -0.0000   -0.0000   -0.0000    0.0000   -0.0334   -0.0000   -0.0280

  MBIS Radial Moments:
   Center  Symbol  Z      [a0^2]      [a0^3]      [a0^4]
      1       C    6   14.294788   35.725347   106.751335
      2       H    1    1.559399    2.931080    6.644628

  MBIS Valence Widths: [a0]
   Center  Symbol  Z     Width
      1       C    6    0.523400
      2       H    1    0.381499

*** tstop() called on Mac.lan at Sun Aug 10 17:08:21 2025
Module time:
	user time   =       2.87 seconds =       0.05 minutes
	system time =       1.61 seconds =       0.03 minutes
	total time  =          1 seconds =       0.02 minutes
Total time:
	user time   =      11.63 seconds =       0.19 minutes
	system time =       3.72 seconds =       0.06 minutes
	total time  =          2 seconds =       0.03 minutes

    Psi4 stopped on: Sunday, 10 August 2025 05:08PM
    Psi4 wall time for execution: 0:00:01.50

*** Psi4 exiting successfully. Buy a developer a beer!
