                               Psi4 1.9.1 release

  ==> Input File <==

--------------------------------------------------------------------------
molecule {
0 2
C           0.000000           0.000000           0.000000
H           0.000000           0.000000           1.272763
}

set {
basis              cc-pvtz
reference          uks
maxiter            500
DAMPING_PERCENTAGE 1
E_CONVERGENCE      1.0E-8
D_CONVERGENCE      1.0E-8
DIIS_MAX_VECS      400
MBIS_MAXITER       8000
guess              read
}

E, wfn = energy('b3lyp', restart_file='last_wfn', return_wfn=True)
properties('b3lyp','MBIS_CHARGES', wfn=wfn)
wfn.to_file('last_wfn')
--------------------------------------------------------------------------

    Molecular point group: c2v
  Charge       = 0
  Multiplicity = 2
  Basis Set: CC-PVTZ
    Blend: CC-PVTZ
  Basis Set: (CC-PVTZ AUX)
    Blend: CC-PVTZ-JKFIT
  @DF-UKS Final Energy:   -38.48784760824775
    Total Energy =                        -38.4878476082477476
 Dipole X            :          0.0000000            0.0000000            0.0000000
 Dipole Y            :          0.0000000            0.0000000            0.0000000
 Dipole Z            :         -0.6386516            1.1007311            0.4620795
 Magnitude           :                                                    0.4620795
    Molecular point group: c2v

    Geometry (in Angstrom), charge = 0, multiplicity = 2:

       Center              X                  Y                   Z               Mass
    ------------   -----------------  -----------------  -----------------  -----------------
         C            0.000000000000     0.000000000000    -0.098611597890    12.000000000000
         H            0.000000000000     0.000000000000     1.174151402110     1.007825032230

  Charge       = 0
  Multiplicity = 2
  Basis Set: CC-PVTZ
    Blend: CC-PVTZ
  Basis Set: (CC-PVTZ AUX)
    Blend: CC-PVTZ-JKFIT

    Orbital Energies [Eh]
    ---------------------

    Alpha Occupied:

       1A1   -10.298031     2A1    -0.623398     3A1    -0.322460
       1B1    -0.262275

    Alpha Virtual:

       1B2    -0.149603     4A1     0.036386     5A1     0.274090
       2B1     0.289467     2B2     0.309151     6A1     0.328150
       7A1     0.445115     3B1     0.553043     3B2     0.555734
       1A2     0.654370     8A1     0.660104     9A1     0.921702
       4B1     0.988956     4B2     0.989630    10A1     1.248143
       5B1     1.913258     5B2     1.939703    11A1     2.115215
      12A1     2.322722     2A2     2.538733    13A1     2.542651
       6B1     2.572701     6B2     2.577787     7B1     2.638850
       7B2     2.641373    14A1     2.781065     3A2     2.893205
      15A1     2.906619     8B1     3.029900     8B2     3.041968
      16A1     3.090035     4A2     3.423520    17A1     3.424846
       9B2     3.732023     9B1     3.734338    18A1     3.992808
      10B1     4.338587    10B2     4.338684    19A1     4.446902
      20A1     6.793376

    Beta Occupied:

       1A1   -10.283023     2A1    -0.577895     3A1    -0.305166

    Beta Virtual:

       1B2    -0.133451     1B1    -0.087054     4A1     0.043627
       5A1     0.279107     2B2     0.316604     6A1     0.336357
       2B1     0.345442     7A1     0.463901     3B2     0.556569
       3B1     0.577169     8A1     0.697557     1A2     0.697894
       9A1     0.934971     4B2     0.990993     4B1     1.010715
      10A1     1.254743     5B2     1.950826     5B1     1.994630
      11A1     2.127154    12A1     2.330514     2A2     2.569596
      13A1     2.569626     6B2     2.580960     6B1     2.612408
       7B2     2.697570     7B1     2.698266    14A1     2.800230
       3A2     2.971638    15A1     2.973311     8B2     3.047134
       8B1     3.088701    16A1     3.108505     4A2     3.431116
      17A1     3.431435     9B2     3.727042     9B1     3.734519
      18A1     4.003478    10B2     4.338416    10B1     4.358179
      19A1     4.449509    20A1     6.809715

    Final Occupation by Irrep:
             A1    A2    B1    B2
    DOCC [     3,    0,    0,    0 ]
    SOCC [     0,    0,    1,    0 ]
    NA   [     3,    0,    1,    0 ]
    NB   [     3,    0,    0,    0 ]

  @DF-UKS Final Energy:   -38.48784760870231

   => Energetics <=

    Nuclear Repulsion Energy =              2.4946225369687838
    One-Electron Energy =                 -56.0347786942890309
    Two-Electron Energy =                  19.5631377925227454
    DFT Exchange-Correlation Energy =      -4.5108292439048068
    Empirical Dispersion Energy =           0.0000000000000000
    VV10 Nonlocal Energy =                  0.0000000000000000
    Total Energy =                        -38.4878476087023103

  UHF NO Occupations:
  HONO-2 :    2 A1 1.9997376
  HONO-1 :    3 A1 1.9986319
  HONO-0 :    1 B1 1.0000000
  LUNO+0 :    4 A1 0.0013681
  LUNO+1 :    5 A1 0.0002624
  LUNO+2 :    6 A1 0.0000007
  LUNO+3 :    7 A1 0.0000000

Computation Completed

Properties will be evaluated at   0.000000,   0.000000,   0.000000 [a0]

Properties computed using the B3LYP density matrix

 Multipole Moments:

 ------------------------------------------------------------------------------------
     Multipole            Electronic (a.u.)      Nuclear  (a.u.)        Total (a.u.)
 ------------------------------------------------------------------------------------

 L = 1.  Multiply by 2.5417464519 to convert [e a0] to [Debye]
 Dipole X            :          0.0000000            0.0000000            0.0000000
 Dipole Y            :          0.0000000            0.0000000            0.0000000
 Dipole Z            :         -0.6386516            1.1007311            0.4620795
 Magnitude           :                                                    0.4620795

 L = 2.  Multiply by 1.3450342976 to convert [e a0^2] to [Debye ang]
 Quadrupole XX       :         -5.8039239            0.0000000           -5.8039239
 Quadrupole XY       :          0.0000000            0.0000000            0.0000000
 Quadrupole XZ       :          0.0000000            0.0000000            0.0000000
 Quadrupole YY       :         -4.3198323            0.0000000           -4.3198323
 Quadrupole YZ       :          0.0000000            0.0000000            0.0000000
 Quadrupole ZZ       :        -10.7619375            5.1315380           -5.6303995
 Traceless XX        :          1.1579739           -1.7105127           -0.5525387
 Traceless YY        :          2.6420656           -1.7105127            0.9315530
 Traceless ZZ        :         -3.8000396            3.4210253           -0.3790142

 ------------------------------------------------------------------------------------
  ==> Computing MBIS Charges <==

  Electron Count from Grid (Expected Number):  7.00000 ( 7.00000)
  Difference:  0.00000

  MBIS Charges: (a.u.)
   Center  Symbol  Z      Pop.       Charge
      1       C    6    6.050062   -0.050062
      2       H    1    0.949939    0.050061

  MBIS Dipoles: [e a0]
   Center  Symbol  Z        X           Y           Z
      1       C    6   -0.000000    0.000000    0.282636
      2       H    1   -0.000000   -0.000000    0.059037

  MBIS Quadrupoles: [e a0^2]
   Center  Symbol  Z      XX        XY        XZ        YY        YZ        ZZ
      1       C    6   -5.1078    0.0000    0.0000   -3.6996    0.0000   -5.3450
      2       H    1   -0.6961    0.0000   -0.0000   -0.6202   -0.0000   -0.6867

  MBIS Octupoles: [e a0^3]
   Center  Symbol  Z      XXX       XXY       XXZ       XYY       XYZ       XZZ       YYY       YYZ       YZZ       ZZZ
      1       C    6    0.0000   -0.0000    0.3589   -0.0000   -0.0000   -0.0000   -0.0000    0.3483   -0.0000    0.6346
      2       H    1    0.0000   -0.0000   -0.0003   -0.0000    0.0000   -0.0000   -0.0000   -0.0556   -0.0000   -0.0231

  MBIS Radial Moments:
   Center  Symbol  Z      [a0^2]      [a0^3]      [a0^4]
      1       C    6   14.152449   35.296944   105.316176
      2       H    1    2.003075    4.178988   10.505484

  MBIS Valence Widths: [a0]
   Center  Symbol  Z     Width
      1       C    6    0.523943
      2       H    1    0.421440

*** tstop() called on Mac.lan at Sun Aug 10 17:09:15 2025
Module time:
	user time   =       2.59 seconds =       0.04 minutes
	system time =       1.75 seconds =       0.03 minutes
	total time  =          0 seconds =       0.00 minutes
Total time:
	user time   =      12.55 seconds =       0.21 minutes
	system time =       4.31 seconds =       0.07 minutes
	total time  =          2 seconds =       0.03 minutes

    Psi4 stopped on: Sunday, 10 August 2025 05:09PM
    Psi4 wall time for execution: 0:00:01.66

*** Psi4 exiting successfully. Buy a developer a beer!
