                               Psi4 1.9.1 release

  ==> Input File <==

--------------------------------------------------------------------------
molecule {
0 2
N           0.000000           0.000000           0.000000
C           0.000000           0.000000           1.018028
}

set {
basis              cc-pvtz
reference          uks
maxiter            500
DAMPING_PERCENTAGE 1
E_CONVERGENCE      1.0E-8
D_CONVERGENCE      1.0E-8
DIIS_MAX_VECS      400
MBIS_MAXITER       8000
guess              read
}

E, wfn = energy('b3lyp', restart_file='last_wfn', return_wfn=True)
properties('b3lyp','MBIS_CHARGES', wfn=wfn)
wfn.to_file('last_wfn')
--------------------------------------------------------------------------

    Molecular point group: c2v
  Charge       = 0
  Multiplicity = 2
  Basis Set: CC-PVTZ
    Blend: CC-PVTZ
  Basis Set: (CC-PVTZ AUX)
    Blend: CC-PVTZ-JKFIT
  @DF-UKS Final Energy:   -92.68633588195834
    Total Energy =                        -92.6863358819583425
 Dipole X            :          0.0000000            0.0000000            0.0000000
 Dipole Y            :          0.0000000            0.0000000            0.0000000
 Dipole Z            :          0.6344373            0.0013646            0.6358019
 Magnitude           :                                                    0.6358019
    Molecular point group: c2v

    Geometry (in Angstrom), charge = 0, multiplicity = 2:

       Center              X                  Y                   Z               Mass
    ------------   -----------------  -----------------  -----------------  -----------------
         N            0.000000000000     0.000000000000    -0.469803531610    14.003074004430
         C            0.000000000000     0.000000000000     0.548224468390    12.000000000000

  Charge       = 0
  Multiplicity = 2
  Basis Set: CC-PVTZ
    Blend: CC-PVTZ
  Basis Set: (CC-PVTZ AUX)
    Blend: CC-PVTZ-JKFIT

    Orbital Energies [Eh]
    ---------------------

    Alpha Occupied:

       1A1   -14.338728     2A1   -10.253540     3A1    -1.012439
       4A1    -0.475460     1B1    -0.430694     1B2    -0.430694
       5A1    -0.404719

    Alpha Virtual:

       2B1     0.040537     2B2     0.040537     6A1     0.171203
       7A1     0.255588     3B2     0.275937     3B1     0.275937
       8A1     0.446337     4B1     0.525740     4B2     0.525740
       9A1     0.616459     1A2     0.616459    10A1     0.739429
       5B1     0.877926     5B2     0.877926    11A1     0.932819
      12A1     1.204779     2A2     1.204779    13A1     1.452068
       6B1     1.561694     6B2     1.561694    14A1     1.869012
       7B2     1.914126     7B1     1.914126    15A1     2.280493
       8B2     2.605602     8B1     2.605602    16A1     2.750732
      17A1     2.769974     3A2     2.769975     9B1     2.836903
       9B2     2.836903    18A1     2.916597     4A2     2.916598
      10B2     3.046052    10B1     3.046052    19A1     3.191931
      11B1     3.496627    11B2     3.496627    12B2     3.987165
      12B1     3.987165    20A1     4.287136     5A2     4.512968
      21A1     4.512969    22A1     4.730523     6A2     4.730523
      13B1     4.891272    13B2     4.891272    23A1     5.232549
      24A1     5.477934    14B1     5.934568    14B2     5.934568
      25A1     6.902822    26A1    14.937729

    Beta Occupied:

       1A1   -14.335632     2A1   -10.235805     3A1    -0.992122
       1B1    -0.420647     1B2    -0.420647     4A1    -0.408127

    Beta Virtual:

       5A1    -0.247449     2B1     0.063623     2B2     0.063623
       6A1     0.178176     3B2     0.287411     3B1     0.287411
       7A1     0.299186     8A1     0.457657     4B1     0.529743
       4B2     0.529743     9A1     0.628721     1A2     0.628721
      10A1     0.785606     5B1     0.907807     5B2     0.907807
      11A1     0.940271    12A1     1.207617     2A2     1.207617
      13A1     1.496823     6B1     1.573661     6B2     1.573661
      14A1     1.893038     7B2     1.932597     7B1     1.932597
      15A1     2.333179     8B2     2.624466     8B1     2.624466
      16A1     2.779818     3A2     2.779819    17A1     2.789481
       9B1     2.910533     9B2     2.910533    18A1     2.973122
       4A2     2.973122    10B2     3.057518    10B1     3.057518
      19A1     3.279206    11B1     3.529564    11B2     3.529564
      12B2     3.983543    12B1     3.983543    20A1     4.314396
       5A2     4.507266    21A1     4.507268    22A1     4.740692
       6A2     4.740693    13B1     4.905812    13B2     4.905812
      23A1     5.258840    24A1     5.506376    14B1     5.961689
      14B2     5.961689    25A1     6.916175    26A1    14.962606

    Final Occupation by Irrep:
             A1    A2    B1    B2
    DOCC [     4,    0,    1,    1 ]
    SOCC [     1,    0,    0,    0 ]
    NA   [     5,    0,    1,    1 ]
    NB   [     4,    0,    1,    1 ]

  @DF-UKS Final Energy:   -92.68633588419878

   => Energetics <=

    Nuclear Repulsion Energy =             21.8318581101305718
    One-Electron Energy =                -167.6908577634270898
    Two-Electron Energy =                  63.1584639387606543
    DFT Exchange-Correlation Energy =      -9.9858001696629266
    Empirical Dispersion Energy =           0.0000000000000000
    VV10 Nonlocal Energy =                  0.0000000000000000
    Total Energy =                        -92.6863358841987690

  UHF NO Occupations:
  HONO-2 :    1 B2 1.9987620
  HONO-1 :    1 B1 1.9987620
  HONO-0 :    5 A1 1.0000000
  LUNO+0 :    2 B2 0.0012380
  LUNO+1 :    2 B1 0.0012380
  LUNO+2 :    6 A1 0.0006480
  LUNO+3 :    7 A1 0.0000595

Computation Completed

Properties will be evaluated at   0.000000,   0.000000,   0.000000 [a0]

Properties computed using the B3LYP density matrix

 Multipole Moments:

 ------------------------------------------------------------------------------------
     Multipole            Electronic (a.u.)      Nuclear  (a.u.)        Total (a.u.)
 ------------------------------------------------------------------------------------

 L = 1.  Multiply by 2.5417464519 to convert [e a0] to [Debye]
 Dipole X            :          0.0000000            0.0000000            0.0000000
 Dipole Y            :          0.0000000            0.0000000            0.0000000
 Dipole Z            :          0.6344373            0.0013646            0.6358018
 Magnitude           :                                                    0.6358018

 L = 2.  Multiply by 1.3450342976 to convert [e a0^2] to [Debye ang]
 Quadrupole XX       :         -7.7204314            0.0000000           -7.7204314
 Quadrupole XY       :          0.0000000            0.0000000            0.0000000
 Quadrupole XZ       :          0.0000000            0.0000000            0.0000000
 Quadrupole YY       :         -7.7204314            0.0000000           -7.7204314
 Quadrupole YZ       :          0.0000000            0.0000000            0.0000000
 Quadrupole ZZ       :        -19.7286539           11.9570246           -7.7716292
 Traceless XX        :          4.0027408           -3.9856749            0.0170659
 Traceless YY        :          4.0027408           -3.9856749            0.0170659
 Traceless ZZ        :         -8.0054816            7.9713498           -0.0341319

 ------------------------------------------------------------------------------------
  ==> Computing MBIS Charges <==

  Electron Count from Grid (Expected Number): 13.00000 (13.00000)
  Difference: -0.00000

  MBIS Charges: (a.u.)
   Center  Symbol  Z      Pop.       Charge
      1       N    7    7.336311   -0.336311
      2       C    6    5.663688    0.336312

  MBIS Dipoles: [e a0]
   Center  Symbol  Z        X           Y           Z
      1       N    7   -0.000000   -0.000000   -0.130470
      2       C    6   -0.000000    0.000000    0.119278

  MBIS Quadrupoles: [e a0^2]
   Center  Symbol  Z      XX        XY        XZ        YY        YZ        ZZ
      1       N    7   -4.1591   -0.0000   -0.0000   -4.1591   -0.0000   -4.5850
      2       C    6   -3.5614    0.0000   -0.0000   -3.5614    0.0000   -3.7614

  MBIS Octupoles: [e a0^3]
   Center  Symbol  Z      XXX       XXY       XXZ       XYY       XYZ       XZZ       YYY       YYZ       YZZ       ZZZ
      1       N    7   -0.0000   -0.0000   -0.1246   -0.0000    0.0000   -0.0000   -0.0000   -0.1246    0.0000   -0.0297
      2       C    6   -0.0000   -0.0000    0.0061   -0.0000    0.0000    0.0000    0.0000    0.0061    0.0000   -0.0729

  MBIS Radial Moments:
   Center  Symbol  Z      [a0^2]      [a0^3]      [a0^4]
      1       N    7   12.903077   27.145723   68.391201
      2       C    6   10.884102   24.921595   68.424019

  MBIS Valence Widths: [a0]
   Center  Symbol  Z     Width
      1       N    7    0.436735
      2       C    6    0.477731

*** tstop() called on Mac.lan at Sun Aug 10 17:12:59 2025
Module time:
	user time   =       3.86 seconds =       0.06 minutes
	system time =       2.31 seconds =       0.04 minutes
	total time  =          0 seconds =       0.00 minutes
Total time:
	user time   =      19.48 seconds =       0.32 minutes
	system time =       4.95 seconds =       0.08 minutes
	total time  =          2 seconds =       0.03 minutes

    Psi4 stopped on: Sunday, 10 August 2025 05:12PM
    Psi4 wall time for execution: 0:00:02.37

*** Psi4 exiting successfully. Buy a developer a beer!
