                               Psi4 1.9.1 release

  ==> Input File <==

--------------------------------------------------------------------------
molecule {
0 3
C           0.000000           0.000000           0.000000
C           0.000000           0.000000           0.828907
}

set {
basis              cc-pvtz
reference          uks
maxiter            500
DAMPING_PERCENTAGE 1
E_CONVERGENCE      1.0E-8
D_CONVERGENCE      1.0E-8
DIIS_MAX_VECS      400
MBIS_MAXITER       8000
guess              read
}

E, wfn = energy('b3lyp', restart_file='last_wfn', return_wfn=True)
properties('b3lyp','MBIS_CHARGES', wfn=wfn)
wfn.to_file('last_wfn')
--------------------------------------------------------------------------

    Molecular point group: d2h
  Charge       = 0
  Multiplicity = 3
  Basis Set: CC-PVTZ
    Blend: CC-PVTZ
  Basis Set: (CC-PVTZ AUX)
    Blend: CC-PVTZ-JKFIT
  @DF-UKS Final Energy:   -75.32425535764087
    Total Energy =                        -75.3242553576408653
 Dipole X            :          0.0000000            0.0000000            0.0000000
 Dipole Y            :          0.0000000            0.0000000            0.0000000
 Dipole Z            :          0.0000000           -0.0000000           -0.0000000
 Magnitude           :                                                    0.0000000
    Molecular point group: d2h

    Geometry (in Angstrom), charge = 0, multiplicity = 3:

       Center              X                  Y                   Z               Mass
    ------------   -----------------  -----------------  -----------------  -----------------
         C            0.000000000000     0.000000000000    -0.414453500000    12.000000000000
         C            0.000000000000     0.000000000000     0.414453500000    12.000000000000

  Charge       = 0
  Multiplicity = 3
  Basis Set: CC-PVTZ
    Blend: CC-PVTZ
  Basis Set: (CC-PVTZ AUX)
    Blend: CC-PVTZ-JKFIT

    Orbital Energies [Eh]
    ---------------------

    Alpha Occupied:

       1Ag   -10.212343     1B1u  -10.150945     2Ag    -0.816274
       1B3u   -0.429970     1B2u   -0.429970     2B1u   -0.383415
       3Ag    -0.369872

    Alpha Virtual:

       1B2g    0.130053     1B3g    0.130053     3B1u    0.181229
       4Ag     0.238486     2B2u    0.239032     2B3u    0.239032
       5Ag     0.377456     2B2g    0.460690     2B3g    0.460690
       1B1g    0.591153     6Ag     0.591153     4B1u    0.632959
       3B3u    0.893364     3B2u    0.893364     5B1u    0.932390
       1Au     0.954914     6B1u    0.954914     7Ag     1.048742
       3B2g    1.171627     3B3g    1.171627     4B3u    1.774934
       4B2u    1.774934     7B1u    2.214144     8Ag     2.252991
       4B2g    2.443142     4B3g    2.443142     5B2u    2.453859
       5B3u    2.453859     2B1g    2.522861     9Ag     2.522862
       8B1u    2.596520     6B3u    2.721127     6B2u    2.721127
      10Ag     2.877898     2Au     2.905180     9B1u    2.905180
       5B2g    3.073919     5B3g    3.073919     3B1g    3.108888
      11Ag     3.108888     6B3g    3.141877     6B2g    3.141877
      12Ag     3.474562    10B1u    3.675065     7B2u    4.142502
       7B3u    4.142502     3Au     4.347338    11B1u    4.347338
       7B2g    5.545846     7B3g    5.545846    12B1u    5.860558
      13Ag     6.036041    13B1u   19.450861

    Beta Occupied:

       1Ag   -10.187688     1B1u  -10.127960     2Ag    -0.771414
       1B3u   -0.402867     1B2u   -0.402867

    Beta Virtual:

       2B1u   -0.169766     3Ag    -0.139774     1B2g    0.165421
       1B3g    0.165421     3B1u    0.214077     2B2u    0.245695
       2B3u    0.245695     4Ag     0.276238     5Ag     0.431379
       2B2g    0.496606     2B3g    0.496606     1B1g    0.599993
       6Ag     0.599994     4B1u    0.680216     3B3u    0.945174
       3B2u    0.945174     1Au     0.976269     5B1u    0.976270
       6B1u    0.999161     7Ag     1.120453     3B2g    1.206092
       3B3g    1.206092     4B3u    1.790145     4B2u    1.790145
       8Ag     2.300495     7B1u    2.343269     5B2u    2.463764
       5B3u    2.463764     4B2g    2.471041     4B3g    2.471041
       2B1g    2.532124     9Ag     2.532124     8B1u    2.644840
       6B3u    2.824769     6B2u    2.824769     2Au     2.965645
       9B1u    2.965649    10Ag     3.020631     5B3g    3.166408
       5B2g    3.166408     6B2g    3.168997     6B3g    3.168997
       3B1g    3.169000    11Ag     3.169004    12Ag     3.545183
      10B1u    3.785253     7B2u    4.208658     7B3u    4.208658
       3Au     4.378589    11B1u    4.378593     7B2g    5.611645
       7B3g    5.611645    12B1u    5.941964    13Ag     6.093109
      13B1u   19.497194

    Final Occupation by Irrep:
             Ag   B1g   B2g   B3g    Au   B1u   B2u   B3u
    DOCC [     2,    0,    0,    0,    0,    1,    1,    1 ]
    SOCC [     1,    0,    0,    0,    0,    1,    0,    0 ]
    NA   [     3,    0,    0,    0,    0,    2,    1,    1 ]
    NB   [     2,    0,    0,    0,    0,    1,    1,    1 ]

  @DF-UKS Final Energy:   -75.32425535231778

   => Energetics <=

    Nuclear Repulsion Energy =             22.9825295046609632
    One-Electron Energy =                -145.4224166893677932
    Two-Electron Energy =                  56.1571876345215557
    DFT Exchange-Correlation Energy =      -9.0415558021324944
    Empirical Dispersion Energy =           0.0000000000000000
    VV10 Nonlocal Energy =                  0.0000000000000000
    Total Energy =                        -75.3242553523177634

  UHF NO Occupations:
  HONO-2 :    2 Ag 1.9995977
  HONO-1 :    3 Ag 1.0000000
  HONO-0 :    2B1u 1.0000000
  LUNO+0 :    4 Ag 0.0004023
  LUNO+1 :    2B2u 0.0003388
  LUNO+2 :    2B3u 0.0003388
  LUNO+3 :    3B1u 0.0000009

Computation Completed

Properties will be evaluated at   0.000000,   0.000000,   0.000000 [a0]

Properties computed using the B3LYP density matrix

 Multipole Moments:

 ------------------------------------------------------------------------------------
     Multipole            Electronic (a.u.)      Nuclear  (a.u.)        Total (a.u.)
 ------------------------------------------------------------------------------------

 L = 1.  Multiply by 2.5417464519 to convert [e a0] to [Debye]
 Dipole X            :          0.0000000            0.0000000            0.0000000
 Dipole Y            :          0.0000000            0.0000000            0.0000000
 Dipole Z            :          0.0000000           -0.0000000           -0.0000000
 Magnitude           :                                                    0.0000000

 L = 2.  Multiply by 1.3450342976 to convert [e a0^2] to [Debye ang]
 Quadrupole XX       :         -7.5348406            0.0000000           -7.5348406
 Quadrupole XY       :          0.0000000            0.0000000            0.0000000
 Quadrupole XZ       :          0.0000000            0.0000000            0.0000000
 Quadrupole YY       :         -7.5348406            0.0000000           -7.5348406
 Quadrupole YZ       :          0.0000000            0.0000000            0.0000000
 Quadrupole ZZ       :        -14.2846822            7.3608947           -6.9237876
 Traceless XX        :          2.2499472           -2.4536316           -0.2036843
 Traceless YY        :          2.2499472           -2.4536316           -0.2036843
 Traceless ZZ        :         -4.4998944            4.9072631            0.4073687

 ------------------------------------------------------------------------------------
  ==> Computing MBIS Charges <==

  Electron Count from Grid (Expected Number): 12.00000 (12.00000)
  Difference: -0.00000

  MBIS Charges: (a.u.)
   Center  Symbol  Z      Pop.       Charge
      1       C    6    6.000000    0.000000
      2       C    6    6.000000    0.000000

  MBIS Dipoles: [e a0]
   Center  Symbol  Z        X           Y           Z
      1       C    6   -0.000000    0.000000   -0.280061
      2       C    6   -0.000000    0.000000    0.280061

  MBIS Quadrupoles: [e a0^2]
   Center  Symbol  Z      XX        XY        XZ        YY        YZ        ZZ
      1       C    6   -3.7674    0.0000   -0.0000   -3.7674   -0.0000   -3.9006
      2       C    6   -3.7674    0.0000    0.0000   -3.7674    0.0000   -3.9006

  MBIS Octupoles: [e a0^3]
   Center  Symbol  Z      XXX       XXY       XXZ       XYY       XYZ       XZZ       YYY       YYZ       YZZ       ZZZ
      1       C    6   -0.0000   -0.0000   -0.1292   -0.0000    0.0000   -0.0000    0.0000   -0.1292    0.0000    0.1698
      2       C    6   -0.0000   -0.0000    0.1292   -0.0000   -0.0000   -0.0000    0.0000    0.1292    0.0000   -0.1698

  MBIS Radial Moments:
   Center  Symbol  Z      [a0^2]      [a0^3]      [a0^4]
      1       C    6   11.435423   26.010534   71.454196
      2       C    6   11.435423   26.010534   71.454196

  MBIS Valence Widths: [a0]
   Center  Symbol  Z     Width
      1       C    6    0.467713
      2       C    6    0.467713

*** tstop() called on Mac.lan at Sun Aug 10 17:03:57 2025
Module time:
	user time   =       3.76 seconds =       0.06 minutes
	system time =       2.59 seconds =       0.04 minutes
	total time  =          1 seconds =       0.02 minutes
Total time:
	user time   =      14.76 seconds =       0.25 minutes
	system time =       4.58 seconds =       0.08 minutes
	total time  =          2 seconds =       0.03 minutes

    Psi4 stopped on: Sunday, 10 August 2025 05:03PM
    Psi4 wall time for execution: 0:00:01.90

*** Psi4 exiting successfully. Buy a developer a beer!
