                               Psi4 1.9.1 release

  ==> Input File <==

--------------------------------------------------------------------------
molecule {
0 1
N           0.000000           0.000000           0.000000
N           0.000000           0.000000           1.456587
}

set {
basis              cc-pvtz
reference          uks
maxiter            500
DAMPING_PERCENTAGE 1
E_CONVERGENCE      1.0E-8
D_CONVERGENCE      1.0E-8
DIIS_MAX_VECS      400
MBIS_MAXITER       8000
guess              read
}

E, wfn = energy('b3lyp', restart_file='last_wfn', return_wfn=True)
properties('b3lyp','MBIS_CHARGES', wfn=wfn)
wfn.to_file('last_wfn')
--------------------------------------------------------------------------

    Molecular point group: d2h
  Charge       = 0
  Multiplicity = 1
  Basis Set: CC-PVTZ
    Blend: CC-PVTZ
  Basis Set: (CC-PVTZ AUX)
    Blend: CC-PVTZ-JKFIT
  @DF-UKS Final Energy:  -109.39516095319908
    Total Energy =                       -109.3951609531990812
 Dipole X            :          0.0000000            0.0000000            0.0000000
 Dipole Y            :          0.0000000            0.0000000            0.0000000
 Dipole Z            :          0.0000000            0.0000000            0.0000000
 Magnitude           :                                                    0.0000000
    Molecular point group: d2h

    Geometry (in Angstrom), charge = 0, multiplicity = 1:

       Center              X                  Y                   Z               Mass
    ------------   -----------------  -----------------  -----------------  -----------------
         N            0.000000000000     0.000000000000    -0.728293500000    14.003074004430
         N            0.000000000000     0.000000000000     0.728293500000    14.003074004430

  Charge       = 0
  Multiplicity = 1
  Basis Set: CC-PVTZ
    Blend: CC-PVTZ
  Basis Set: (CC-PVTZ AUX)
    Blend: CC-PVTZ-JKFIT

    Orbital Energies [Eh]
    ---------------------

    Alpha Occupied:

       1Ag   -14.489509     1B1u  -14.489287     2Ag    -0.946149
       2B1u   -0.642326     3Ag    -0.413314     1B2u   -0.384501
       1B3u   -0.384501

    Alpha Virtual:

       1B2g   -0.148774     1B3g   -0.148774     3B1u    0.112994
       4B1u    0.402617     2B2u    0.417650     2B3u    0.417650
       4Ag     0.442750     5Ag     0.490824     2B3g    0.504698
       2B2g    0.504698     5B1u    0.867381     6Ag     0.877390
       1B1g    0.877390     3B3u    0.919763     3B2u    0.919763
       1Au     1.152727     6B1u    1.152727     7Ag     1.511274
       3B2g    1.558792     3B3g    1.558792     7B1u    1.636267
       4B2u    2.681842     4B3u    2.681842     8Ag     2.779065
       4B3g    2.873510     4B2g    2.873510     5B2u    3.500653
       5B3u    3.500653     9Ag     3.518583     2B1g    3.518584
       8B1u    3.533525    10Ag     3.583919     6B3u    3.756236
       6B2u    3.756236     5B2g    3.890391     5B3g    3.890391
       9B1u    4.196060     2Au     4.196062    11Ag     4.322344
       3B1g    4.322356    10B1u    4.467133     6B3g    4.498952
       6B2g    4.498952    11B1u    4.501462     3Au     4.501474
       7B2u    4.558460     7B3u    4.558460    12B1u    4.819095
      12Ag     5.036984     7B3g    5.275460     7B2g    5.275460
      13Ag     5.587761    13B1u    8.147914

    Beta Occupied:

       1Ag   -14.489509     1B1u  -14.489287     2Ag    -0.946149
       2B1u   -0.642326     3Ag    -0.413314     1B2u   -0.384501
       1B3u   -0.384501

    Beta Virtual:

       1B2g   -0.148774     1B3g   -0.148774     3B1u    0.112994
       4B1u    0.402617     2B2u    0.417650     2B3u    0.417650
       4Ag     0.442750     5Ag     0.490824     2B3g    0.504698
       2B2g    0.504698     5B1u    0.867381     6Ag     0.877390
       1B1g    0.877390     3B3u    0.919763     3B2u    0.919763
       1Au     1.152727     6B1u    1.152727     7Ag     1.511274
       3B2g    1.558792     3B3g    1.558792     7B1u    1.636267
       4B2u    2.681842     4B3u    2.681842     8Ag     2.779065
       4B3g    2.873510     4B2g    2.873510     5B2u    3.500653
       5B3u    3.500653     9Ag     3.518583     2B1g    3.518584
       8B1u    3.533525    10Ag     3.583919     6B3u    3.756236
       6B2u    3.756236     5B2g    3.890391     5B3g    3.890391
       9B1u    4.196060     2Au     4.196062    11Ag     4.322344
       3B1g    4.322356    10B1u    4.467133     6B3g    4.498952
       6B2g    4.498952    11B1u    4.501462     3Au     4.501474
       7B2u    4.558460     7B3u    4.558460    12B1u    4.819095
      12Ag     5.036984     7B3g    5.275460     7B2g    5.275460
      13Ag     5.587761    13B1u    8.147914

    Final Occupation by Irrep:
             Ag   B1g   B2g   B3g    Au   B1u   B2u   B3u
    DOCC [     3,    0,    0,    0,    0,    2,    1,    1 ]
    SOCC [     0,    0,    0,    0,    0,    0,    0,    0 ]
    NA   [     3,    0,    0,    0,    0,    2,    1,    1 ]
    NB   [     3,    0,    0,    0,    0,    2,    1,    1 ]

  @DF-UKS Final Energy:  -109.39516095334899

   => Energetics <=

    Nuclear Repulsion Energy =             17.8016715258546121
    One-Electron Energy =                -183.0892596078089696
    Two-Electron Energy =                  66.7281002539718457
    DFT Exchange-Correlation Energy =     -10.8356731253664655
    Empirical Dispersion Energy =           0.0000000000000000
    VV10 Nonlocal Energy =                  0.0000000000000000
    Total Energy =                       -109.3951609533489915

  UHF NO Occupations:
  HONO-2 :    1B2u 2.0000000
  HONO-1 :    3 Ag 2.0000000
  HONO-0 :    2B1u 2.0000000
  LUNO+0 :    3B1u 0.0000000
  LUNO+1 :    4 Ag 0.0000000
  LUNO+2 :    2B3u 0.0000000
  LUNO+3 :    5 Ag 0.0000000

Computation Completed

Properties will be evaluated at   0.000000,   0.000000,   0.000000 [a0]

Properties computed using the B3LYP density matrix

 Multipole Moments:

 ------------------------------------------------------------------------------------
     Multipole            Electronic (a.u.)      Nuclear  (a.u.)        Total (a.u.)
 ------------------------------------------------------------------------------------

 L = 1.  Multiply by 2.5417464519 to convert [e a0] to [Debye]
 Dipole X            :          0.0000000            0.0000000            0.0000000
 Dipole Y            :          0.0000000            0.0000000            0.0000000
 Dipole Z            :          0.0000000            0.0000000            0.0000000
 Magnitude           :                                                    0.0000000

 L = 2.  Multiply by 1.3450342976 to convert [e a0^2] to [Debye ang]
 Quadrupole XX       :         -8.1842870            0.0000000           -8.1842870
 Quadrupole XY       :          0.0000000            0.0000000            0.0000000
 Quadrupole XZ       :          0.0000000            0.0000000            0.0000000
 Quadrupole YY       :         -8.1842870            0.0000000           -8.1842870
 Quadrupole YZ       :          0.0000000            0.0000000            0.0000000
 Quadrupole ZZ       :        -35.0605032           26.5178700           -8.5426331
 Traceless XX        :          8.9587387           -8.8392900            0.1194487
 Traceless YY        :          8.9587387           -8.8392900            0.1194487
 Traceless ZZ        :        -17.9174774           17.6785800           -0.2388974

 ------------------------------------------------------------------------------------
  ==> Computing MBIS Charges <==

  Electron Count from Grid (Expected Number): 14.00000 (14.00000)
  Difference: -0.00000

  MBIS Charges: (a.u.)
   Center  Symbol  Z      Pop.       Charge
      1       N    7    7.000000    0.000000
      2       N    7    7.000000    0.000000

  MBIS Dipoles: [e a0]
   Center  Symbol  Z        X           Y           Z
      1       N    7   -0.000000    0.000000   -0.031080
      2       N    7   -0.000000   -0.000000    0.031080

  MBIS Quadrupoles: [e a0^2]
   Center  Symbol  Z      XX        XY        XZ        YY        YZ        ZZ
      1       N    7   -4.0921   -0.0000    0.0000   -4.0921   -0.0000   -4.3569
      2       N    7   -4.0921   -0.0000   -0.0000   -4.0921    0.0000   -4.3569

  MBIS Octupoles: [e a0^3]
   Center  Symbol  Z      XXX       XXY       XXZ       XYY       XYZ       XZZ       YYY       YYZ       YZZ       ZZZ
      1       N    7   -0.0000    0.0000   -0.1715    0.0000    0.0000   -0.0000   -0.0000   -0.1715   -0.0000   -0.3628
      2       N    7   -0.0000    0.0000    0.1715    0.0000   -0.0000   -0.0000   -0.0000    0.1715   -0.0000    0.3628

  MBIS Radial Moments:
   Center  Symbol  Z      [a0^2]      [a0^3]      [a0^4]
      1       N    7   12.541153   26.693587   67.622238
      2       N    7   12.541153   26.693587   67.622238

  MBIS Valence Widths: [a0]
   Center  Symbol  Z     Width
      1       N    7    0.445726
      2       N    7    0.445726

*** tstop() called on Mac.lan at Sun Aug 10 17:07:35 2025
Module time:
	user time   =       3.76 seconds =       0.06 minutes
	system time =       2.45 seconds =       0.04 minutes
	total time  =          0 seconds =       0.00 minutes
Total time:
	user time   =      24.77 seconds =       0.41 minutes
	system time =       4.94 seconds =       0.08 minutes
	total time  =          3 seconds =       0.05 minutes

    Psi4 stopped on: Sunday, 10 August 2025 05:07PM
    Psi4 wall time for execution: 0:00:02.99

*** Psi4 exiting successfully. Buy a developer a beer!
