                               Psi4 1.9.1 release

  ==> Input File <==

--------------------------------------------------------------------------
molecule {
0 2
N           0.000000           0.000000           0.000000
C           0.000000           0.000000           1.551959
}

set {
basis              cc-pvtz
reference          uks
maxiter            500
DAMPING_PERCENTAGE 1
E_CONVERGENCE      1.0E-8
D_CONVERGENCE      1.0E-8
DIIS_MAX_VECS      400
MBIS_MAXITER       8000
guess              read
}

E, wfn = energy('b3lyp', restart_file='last_wfn', return_wfn=True)
properties('b3lyp','MBIS_CHARGES', wfn=wfn)
wfn.to_file('last_wfn')
--------------------------------------------------------------------------

    Molecular point group: c2v
  Charge       = 0
  Multiplicity = 2
  Basis Set: CC-PVTZ
    Blend: CC-PVTZ
  Basis Set: (CC-PVTZ AUX)
    Blend: CC-PVTZ-JKFIT
  @DF-UKS Final Energy:   -92.60808457553691
    Total Energy =                        -92.6080845755369069
 Dipole X            :          0.0000000            0.0000000            0.0000000
 Dipole Y            :          0.0000000            0.0000000            0.0000000
 Dipole Z            :          0.3990882            0.0020802            0.4011685
 Magnitude           :                                                    0.4011685
    Molecular point group: c2v

    Geometry (in Angstrom), charge = 0, multiplicity = 2:

       Center              X                  Y                   Z               Mass
    ------------   -----------------  -----------------  -----------------  -----------------
         N            0.000000000000     0.000000000000    -0.716204091748    14.003074004430
         C            0.000000000000     0.000000000000     0.835754908252    12.000000000000

  Charge       = 0
  Multiplicity = 2
  Basis Set: CC-PVTZ
    Blend: CC-PVTZ
  Basis Set: (CC-PVTZ AUX)
    Blend: CC-PVTZ-JKFIT

    Orbital Energies [Eh]
    ---------------------

    Alpha Occupied:

       1A1   -14.453454     2A1   -10.376046     3A1    -0.846179
       4A1    -0.568605     5A1    -0.404293     1B2    -0.334748
       1B1    -0.334748

    Alpha Virtual:

       2B2    -0.123361     2B1    -0.123361     6A1     0.092624
       7A1     0.267873     3B1     0.292362     3B2     0.292362
       8A1     0.310167     9A1     0.433266     4B2     0.496164
       4B1     0.496164     1A2     0.629779    10A1     0.629779
       5B2     0.701262     5B1     0.701262    11A1     0.864915
      12A1     1.015906    13A1     1.077361     2A2     1.077361
       6B2     1.345338     6B1     1.345338    14A1     1.533435
       7B2     1.934767     7B1     1.934767    15A1     2.140706
       8B1     2.584676     8B2     2.584676     3A2     2.610885
      16A1     2.610886     9B1     2.626493     9B2     2.626493
      17A1     2.722456     4A2     2.888330    18A1     2.888330
      10B1     2.904414    10B2     2.904414    19A1     3.095583
      11B1     3.138958    11B2     3.138958    20A1     3.161095
      12B1     3.868421    12B2     3.868421    21A1     3.987979
       5A2     3.987980    22A1     4.092712    13B2     4.346341
      13B1     4.346341    23A1     4.434145     6A2     4.434153
      24A1     4.683185    14B2     4.828246    14B1     4.828246
      25A1     5.481649    26A1     7.173823

    Beta Occupied:

       1A1   -14.445029     2A1   -10.365482     3A1    -0.815953
       4A1    -0.506368     1B2    -0.327636     1B1    -0.327636

    Beta Virtual:

       5A1    -0.250162     2B2    -0.108313     2B1    -0.108313
       6A1     0.123423     3B1     0.298322     3B2     0.298322
       7A1     0.306978     8A1     0.334931     9A1     0.459645
       4B2     0.497645     4B1     0.497645     1A2     0.635992
      10A1     0.635992     5B2     0.728229     5B1     0.728229
      11A1     0.876067    12A1     1.053519    13A1     1.077387
       2A2     1.077387     6B2     1.370254     6B1     1.370254
      14A1     1.566799     7B2     1.945506     7B1     1.945506
      15A1     2.187002     8B1     2.607354     8B2     2.607354
       3A2     2.634103    16A1     2.634104     9B1     2.634480
       9B2     2.634480    17A1     2.770622     4A2     2.902592
      18A1     2.902592    10B1     2.927205    10B2     2.927205
      19A1     3.150426    11B1     3.179137    11B2     3.179137
      20A1     3.205614    12B1     3.863457    12B2     3.863457
      21A1     4.003094     5A2     4.003095    22A1     4.128071
      13B2     4.378349    13B1     4.378349    23A1     4.433661
       6A2     4.433669    24A1     4.745503    14B2     4.870172
      14B1     4.870172    25A1     5.509521    26A1     7.195363

    Final Occupation by Irrep:
             A1    A2    B1    B2
    DOCC [     4,    0,    1,    1 ]
    SOCC [     1,    0,    0,    0 ]
    NA   [     5,    0,    1,    1 ]
    NB   [     4,    0,    1,    1 ]

  @DF-UKS Final Energy:   -92.60808457301495

   => Energetics <=

    Nuclear Repulsion Energy =             14.3208956216884644
    One-Electron Energy =                -152.8154368830757335
    Two-Electron Energy =                  55.5064313533266471
    DFT Exchange-Correlation Energy =      -9.6199746649543272
    Empirical Dispersion Energy =           0.0000000000000000
    VV10 Nonlocal Energy =                  0.0000000000000000
    Total Energy =                        -92.6080845730149491

  UHF NO Occupations:
  HONO-2 :    1 B2 1.9988162
  HONO-1 :    4 A1 1.9964598
  HONO-0 :    5 A1 1.0000000
  LUNO+0 :    6 A1 0.0035402
  LUNO+1 :    2 B2 0.0011838
  LUNO+2 :    2 B1 0.0011838
  LUNO+3 :    7 A1 0.0002541

Computation Completed

Properties will be evaluated at   0.000000,   0.000000,   0.000000 [a0]

Properties computed using the B3LYP density matrix

 Multipole Moments:

 ------------------------------------------------------------------------------------
     Multipole            Electronic (a.u.)      Nuclear  (a.u.)        Total (a.u.)
 ------------------------------------------------------------------------------------

 L = 1.  Multiply by 2.5417464519 to convert [e a0] to [Debye]
 Dipole X            :          0.0000000            0.0000000            0.0000000
 Dipole Y            :          0.0000000            0.0000000            0.0000000
 Dipole Z            :          0.3990883            0.0020802            0.4011686
 Magnitude           :                                                    0.4011686

 L = 2.  Multiply by 1.3450342976 to convert [e a0^2] to [Debye ang]
 Quadrupole XX       :         -8.9415341            0.0000000           -8.9415341
 Quadrupole XY       :          0.0000000            0.0000000            0.0000000
 Quadrupole XZ       :          0.0000000            0.0000000            0.0000000
 Quadrupole YY       :         -8.9415341            0.0000000           -8.9415341
 Quadrupole YZ       :          0.0000000            0.0000000            0.0000000
 Quadrupole ZZ       :        -35.2034667           27.7884399           -7.4150268
 Traceless XX        :          8.7539775           -9.2628133           -0.5088358
 Traceless YY        :          8.7539775           -9.2628133           -0.5088358
 Traceless ZZ        :        -17.5079551           18.5256266            1.0176716

 ------------------------------------------------------------------------------------
  ==> Computing MBIS Charges <==

  Electron Count from Grid (Expected Number): 13.00000 (13.00000)
  Difference: -0.00000

  MBIS Charges: (a.u.)
   Center  Symbol  Z      Pop.       Charge
      1       N    7    7.174622   -0.174622
      2       C    6    5.825378    0.174622

  MBIS Dipoles: [e a0]
   Center  Symbol  Z        X           Y           Z
      1       N    7   -0.000000   -0.000000   -0.274530
      2       C    6    0.000000   -0.000000    0.163570

  MBIS Quadrupoles: [e a0^2]
   Center  Symbol  Z      XX        XY        XZ        YY        YZ        ZZ
      1       N    7   -4.5687    0.0000   -0.0000   -4.5687    0.0000   -4.3916
      2       C    6   -4.3728    0.0000    0.0000   -4.3728    0.0000   -4.3989

  MBIS Octupoles: [e a0^3]
   Center  Symbol  Z      XXX       XXY       XXZ       XYY       XYZ       XZZ       YYY       YYZ       YZZ       ZZZ
      1       N    7   -0.0000   -0.0000   -0.4365    0.0000    0.0000    0.0000    0.0000   -0.4365   -0.0000   -1.1631
      2       C    6   -0.0000   -0.0000    0.4354   -0.0000    0.0000    0.0000    0.0000    0.4354    0.0000    0.9458

  MBIS Radial Moments:
   Center  Symbol  Z      [a0^2]      [a0^3]      [a0^4]
      1       N    7   13.528955   29.567380   76.937632
      2       C    6   13.144621   32.199845   93.667529

  MBIS Valence Widths: [a0]
   Center  Symbol  Z     Width
      1       N    7    0.455583
      2       C    6    0.519313

*** tstop() called on Mac.lan at Sun Aug 10 17:15:38 2025
Module time:
	user time   =       5.22 seconds =       0.09 minutes
	system time =       1.69 seconds =       0.03 minutes
	total time  =          1 seconds =       0.02 minutes
Total time:
	user time   =      26.04 seconds =       0.43 minutes
	system time =       4.10 seconds =       0.07 minutes
	total time  =          3 seconds =       0.05 minutes

    Psi4 stopped on: Sunday, 10 August 2025 05:15PM
    Psi4 wall time for execution: 0:00:02.90

*** Psi4 exiting successfully. Buy a developer a beer!
