                               Psi4 1.9.1 release

  ==> Input File <==

--------------------------------------------------------------------------
molecule {
0 3
C           0.000000           0.000000           0.000000
C           0.000000           0.000000           0.972371
}

set {
basis              cc-pvtz
reference          uks
maxiter            500
DAMPING_PERCENTAGE 1
E_CONVERGENCE      1.0E-8
D_CONVERGENCE      1.0E-8
DIIS_MAX_VECS      400
MBIS_MAXITER       8000
guess              read
}

E, wfn = energy('b3lyp', restart_file='last_wfn', return_wfn=True)
properties('b3lyp','MBIS_CHARGES', wfn=wfn)
wfn.to_file('last_wfn')
--------------------------------------------------------------------------

    Molecular point group: d2h
  Charge       = 0
  Multiplicity = 3
  Basis Set: CC-PVTZ
    Blend: CC-PVTZ
  Basis Set: (CC-PVTZ AUX)
    Blend: CC-PVTZ-JKFIT
  @DF-UKS Final Energy:   -75.68343870544555
    Total Energy =                        -75.6834387054455533
 Dipole X            :          0.0000000            0.0000000            0.0000000
 Dipole Y            :          0.0000000            0.0000000            0.0000000
 Dipole Z            :          0.0000000            0.0000000            0.0000000
 Magnitude           :                                                    0.0000000
    Molecular point group: d2h

    Geometry (in Angstrom), charge = 0, multiplicity = 3:

       Center              X                  Y                   Z               Mass
    ------------   -----------------  -----------------  -----------------  -----------------
         C            0.000000000000     0.000000000000    -0.486185500000    12.000000000000
         C            0.000000000000     0.000000000000     0.486185500000    12.000000000000

  Charge       = 0
  Multiplicity = 3
  Basis Set: CC-PVTZ
    Blend: CC-PVTZ
  Basis Set: (CC-PVTZ AUX)
    Blend: CC-PVTZ-JKFIT

    Orbital Energies [Eh]
    ---------------------

    Alpha Occupied:

       1Ag   -10.239820     1B1u  -10.221702     2Ag    -0.925217
       1B3u   -0.466249     1B2u   -0.421186     2B1u   -0.395568
       3Ag    -0.365816

    Alpha Virtual:

       1B2g    0.057523     1B3g    0.081361     3B1u    0.187004
       2B3u    0.223909     2B2u    0.239392     4Ag     0.248546
       5Ag     0.344340     2B2g    0.396445     2B3g    0.414410
       1B1g    0.539904     6Ag     0.540768     4B1u    0.591700
       3B3u    0.832997     5B1u    0.854018     3B2u    0.855132
       1Au     0.909827     6B1u    0.912204     7Ag     1.084804
       3B2g    1.136372     3B3g    1.151548     4B3u    1.784276
       4B2u    1.817787     7B1u    1.899357     8Ag     2.167202
       4B2g    2.320655     4B3g    2.349160     5B3u    2.396541
       5B2u    2.396700     8B1u    2.405216     2B1g    2.427258
       9Ag     2.429117     6B3u    2.617557     6B2u    2.649810
      10Ag     2.818327     5B2g    2.931990     5B3g    2.954219
       2Au     2.960049     9B1u    2.960206     3B1g    2.999182
      11Ag     3.000179     6B2g    3.003497     6B3g    3.004031
      12Ag     3.461325    10B1u    3.546291     7B3u    3.766314
       7B2u    3.795078     3Au     3.946762    11B1u    3.947212
      12B1u    4.849050     7B2g    5.180182     7B3g    5.211769
      13Ag     6.033959    13B1u   17.781065

    Beta Occupied:

       1Ag   -10.220342     1B1u  -10.203471     2Ag    -0.842066
       1B2u   -0.398032     2B1u   -0.307088

    Beta Virtual:

       1B3u   -0.288125     3Ag    -0.212101     1B3g    0.101930
       1B2g    0.114625     3B1u    0.200013     2B2u    0.246003
       2B3u    0.254040     4Ag     0.268072     5Ag     0.382855
       2B3g    0.427962     2B2g    0.441055     1B1g    0.570869
       6Ag     0.573795     4B1u    0.617921     3B2u    0.881350
       3B3u    0.881926     5B1u    0.896395     1Au     0.933071
       6B1u    0.934857     7Ag     1.124622     3B3g    1.168261
       3B2g    1.172046     4B2u    1.834155     4B3u    1.847262
       7B1u    1.966253     8Ag     2.216647     4B3g    2.363945
       4B2g    2.372100     5B2u    2.435474     5B3u    2.436672
       8B1u    2.450150     2B1g    2.473088     9Ag     2.477398
       6B2u    2.695688     6B3u    2.707911    10Ag     2.891874
       5B3g    3.000206     5B2g    3.003013     2Au     3.008836
       9B1u    3.012988     6B3g    3.039690     6B2g    3.040978
       3B1g    3.049663    11Ag     3.053714    12Ag     3.503720
      10B1u    3.603797     7B2u    3.831127     7B3u    3.834031
       3Au     3.989418    11B1u    3.993457    12B1u    4.908215
       7B3g    5.246240     7B2g    5.257469    13Ag     6.079471
      13B1u   17.807657

    Final Occupation by Irrep:
             Ag   B1g   B2g   B3g    Au   B1u   B2u   B3u
    DOCC [     2,    0,    0,    0,    0,    2,    1,    0 ]
    SOCC [     1,    0,    0,    0,    0,    0,    0,    1 ]
    NA   [     3,    0,    0,    0,    0,    2,    1,    1 ]
    NB   [     2,    0,    0,    0,    0,    2,    1,    0 ]

  @DF-UKS Final Energy:   -75.68343870546506

   => Energetics <=

    Nuclear Repulsion Energy =             19.5916780571613032
    One-Electron Energy =                -139.1810673427680172
    Two-Electron Energy =                  52.7398815334408440
    DFT Exchange-Correlation Energy =      -8.8339309532992072
    Empirical Dispersion Energy =           0.0000000000000000
    VV10 Nonlocal Energy =                  0.0000000000000000
    Total Energy =                        -75.6834387054650648

  UHF NO Occupations:
  HONO-2 :    2B1u 1.9983039
  HONO-1 :    1B3u 1.0000000
  HONO-0 :    3 Ag 1.0000000
  LUNO+0 :    3B1u 0.0016961
  LUNO+1 :    4 Ag 0.0004014
  LUNO+2 :    2B2u 0.0001156
  LUNO+3 :    4B1u 0.0000008

Computation Completed

Properties will be evaluated at   0.000000,   0.000000,   0.000000 [a0]

Properties computed using the B3LYP density matrix

 Multipole Moments:

 ------------------------------------------------------------------------------------
     Multipole            Electronic (a.u.)      Nuclear  (a.u.)        Total (a.u.)
 ------------------------------------------------------------------------------------

 L = 1.  Multiply by 2.5417464519 to convert [e a0] to [Debye]
 Dipole X            :          0.0000000            0.0000000            0.0000000
 Dipole Y            :          0.0000000            0.0000000            0.0000000
 Dipole Z            :          0.0000000            0.0000000            0.0000000
 Magnitude           :                                                    0.0000000

 L = 2.  Multiply by 1.3450342976 to convert [e a0^2] to [Debye ang]
 Quadrupole XX       :         -7.1133811            0.0000000           -7.1133811
 Quadrupole XY       :          0.0000000            0.0000000            0.0000000
 Quadrupole XZ       :          0.0000000            0.0000000            0.0000000
 Quadrupole YY       :         -8.2594310            0.0000000           -8.2594310
 Quadrupole YZ       :          0.0000000            0.0000000            0.0000000
 Quadrupole ZZ       :        -19.4317876           10.1293828           -9.3024048
 Traceless XX        :          4.4881521           -3.3764609            1.1116912
 Traceless YY        :          3.3421023           -3.3764609           -0.0343587
 Traceless ZZ        :         -7.8302544            6.7529219           -1.0773325

 ------------------------------------------------------------------------------------
  ==> Computing MBIS Charges <==

  Electron Count from Grid (Expected Number): 12.00000 (12.00000)
  Difference:  0.00000

  MBIS Charges: (a.u.)
   Center  Symbol  Z      Pop.       Charge
      1       C    6    6.000000   -0.000000
      2       C    6    6.000000   -0.000000

  MBIS Dipoles: [e a0]
   Center  Symbol  Z        X           Y           Z
      1       C    6   -0.000000    0.000000    0.050855
      2       C    6   -0.000000    0.000000   -0.050855

  MBIS Quadrupoles: [e a0^2]
   Center  Symbol  Z      XX        XY        XZ        YY        YZ        ZZ
      1       C    6   -3.5567   -0.0000   -0.0000   -4.1297   -0.0000   -4.5578
      2       C    6   -3.5567   -0.0000    0.0000   -4.1297    0.0000   -4.5578

  MBIS Octupoles: [e a0^3]
   Center  Symbol  Z      XXX       XXY       XXZ       XYY       XYZ       XZZ       YYY       YYZ       YZZ       ZZZ
      1       C    6   -0.0000   -0.0000    0.3175   -0.0000    0.0000   -0.0000    0.0000    0.1570    0.0000    0.7841
      2       C    6   -0.0000   -0.0000   -0.3175   -0.0000   -0.0000   -0.0000    0.0000   -0.1570    0.0000   -0.7841

  MBIS Radial Moments:
   Center  Symbol  Z      [a0^2]      [a0^3]      [a0^4]
      1       C    6   12.244161   28.738164   81.117684
      2       C    6   12.244161   28.738164   81.117684

  MBIS Valence Widths: [a0]
   Center  Symbol  Z     Width
      1       C    6    0.485831
      2       C    6    0.485831

*** tstop() called on Mac.lan at Sun Aug 10 17:03:41 2025
Module time:
	user time   =       3.68 seconds =       0.06 minutes
	system time =       2.81 seconds =       0.05 minutes
	total time  =          0 seconds =       0.00 minutes
Total time:
	user time   =      15.57 seconds =       0.26 minutes
	system time =       5.27 seconds =       0.09 minutes
	total time  =          2 seconds =       0.03 minutes

    Psi4 stopped on: Sunday, 10 August 2025 05:03PM
    Psi4 wall time for execution: 0:00:02.03

*** Psi4 exiting successfully. Buy a developer a beer!
