                               Psi4 1.9.1 release

  ==> Input File <==

--------------------------------------------------------------------------
molecule {
0 3
C           0.000000           0.000000           0.000000
C           0.000000           0.000000           1.761427
}

set {
basis              cc-pvtz
reference          uks
maxiter            500
DAMPING_PERCENTAGE 1
E_CONVERGENCE      1.0E-8
D_CONVERGENCE      1.0E-8
DIIS_MAX_VECS      400
MBIS_MAXITER       8000
guess              read
}

E, wfn = energy('b3lyp', restart_file='last_wfn', return_wfn=True)
properties('b3lyp','MBIS_CHARGES', wfn=wfn)
wfn.to_file('last_wfn')
--------------------------------------------------------------------------

    Molecular point group: d2h
  Charge       = 0
  Multiplicity = 3
  Basis Set: CC-PVTZ
    Blend: CC-PVTZ
  Basis Set: (CC-PVTZ AUX)
    Blend: CC-PVTZ-JKFIT
  @DF-UKS Final Energy:   -75.83932138913157
    Total Energy =                        -75.8393213891315696
 Dipole X            :          0.0000000            0.0000000            0.0000000
 Dipole Y            :          0.0000000            0.0000000            0.0000000
 Dipole Z            :          0.0000000           -0.0000000           -0.0000000
 Magnitude           :                                                    0.0000000
    Molecular point group: d2h

    Geometry (in Angstrom), charge = 0, multiplicity = 3:

       Center              X                  Y                   Z               Mass
    ------------   -----------------  -----------------  -----------------  -----------------
         C            0.000000000000     0.000000000000    -0.880713500000    12.000000000000
         C            0.000000000000     0.000000000000     0.880713500000    12.000000000000

  Charge       = 0
  Multiplicity = 3
  Basis Set: CC-PVTZ
    Blend: CC-PVTZ
  Basis Set: (CC-PVTZ AUX)
    Blend: CC-PVTZ-JKFIT

    Orbital Energies [Eh]
    ---------------------

    Alpha Occupied:

       1Ag   -10.345248     1B1u  -10.345090     2Ag    -0.706086
       2B1u   -0.516970     3Ag    -0.344758     1B3u   -0.309312
       1B2u   -0.280839

    Alpha Virtual:

       1B2g   -0.140577     1B3g   -0.113196     3B1u    0.049035
       4B1u    0.253066     2B3u    0.275780     4Ag     0.288376
       2B2u    0.290506     5Ag     0.332181     2B2g    0.336162
       2B3g    0.348582     1B1g    0.572942     6Ag     0.573356
       3B3u    0.583291     3B2u    0.604334     5B1u    0.613599
       1Au     0.759078     6B1u    0.759535     7Ag     0.999779
       3B2g    1.019941     3B3g    1.037362     7B1u    1.088478
       4B3u    1.839910     4B2u    1.861611     8Ag     1.908772
       4B2g    1.972480     4B3g    1.996829     5B3u    2.377447
       5B2u    2.400695     9Ag     2.408903     2B1g    2.420721
      10Ag     2.428528     8B1u    2.435976     6B3u    2.593664
       6B2u    2.593774     5B2g    2.681631     5B3g    2.681712
       9B1u    2.852834     2Au     2.853057     3B1g    2.870215
      11Ag     2.870288     6B2g    2.979765     6B3g    3.002846
      10B1u    3.006172     7B3u    3.010592     3Au     3.016224
      11B1u    3.025102     7B2u    3.034017    12B1u    3.371154
      12Ag     3.434355     7B2g    3.583510     7B3g    3.605332
      13Ag     3.933029    13B1u    5.576012

    Beta Occupied:

       1Ag   -10.330320     1B1u  -10.330269     2Ag    -0.644165
       2B1u   -0.439225     1B2u   -0.265171

    Beta Virtual:

       3Ag    -0.197612     1B3u   -0.179940     1B3g   -0.095012
       1B2g   -0.061583     3B1u    0.098709     2B2u    0.296335
       4B1u    0.297506     2B3u    0.307441     4Ag     0.317992
       2B3g    0.353772     5Ag     0.358630     2B2g    0.362537
       1B1g    0.597150     6Ag     0.599263     3B2u    0.631576
       5B1u    0.634342     3B3u    0.640263     1Au     0.781386
       6B1u    0.783343     7Ag     1.044388     3B3g    1.060569
       3B2g    1.064702     7B1u    1.128661     4B2u    1.876436
       4B3u    1.890031     8Ag     1.962144     4B3g    2.006991
       4B2g    2.019174     5B2u    2.429197     5B3u    2.438089
       2B1g    2.463189     9Ag     2.464063    10Ag     2.470455
       8B1u    2.482109     6B2u    2.623213     6B3u    2.623933
       5B3g    2.710905     5B2g    2.711621     2Au     2.884283
       9B1u    2.887764     3B1g    2.906677    11Ag     2.911012
       6B3g    3.039028     6B2g    3.054643     3Au     3.060994
      10B1u    3.062462     7B2u    3.076731    11B1u    3.081067
       7B3u    3.090767    12B1u    3.420273    12Ag     3.495557
       7B3g    3.642142     7B2g    3.648862    13Ag     3.968633
      13B1u    5.610125

    Final Occupation by Irrep:
             Ag   B1g   B2g   B3g    Au   B1u   B2u   B3u
    DOCC [     2,    0,    0,    0,    0,    2,    1,    0 ]
    SOCC [     1,    0,    0,    0,    0,    0,    0,    1 ]
    NA   [     3,    0,    0,    0,    0,    2,    1,    1 ]
    NB   [     2,    0,    0,    0,    0,    2,    1,    0 ]

  @DF-UKS Final Energy:   -75.83932138913249

   => Energetics <=

    Nuclear Repulsion Energy =             10.8153103047245231
    One-Electron Energy =                -122.3937891259144948
    Two-Electron Energy =                  44.1312174735537823
    DFT Exchange-Correlation Energy =      -8.3920600414963022
    Empirical Dispersion Energy =           0.0000000000000000
    VV10 Nonlocal Energy =                  0.0000000000000000
    Total Energy =                        -75.8393213891324933

  UHF NO Occupations:
  HONO-2 :    2B1u 1.9975087
  HONO-1 :    3 Ag 1.0000000
  HONO-0 :    1B3u 1.0000000
  LUNO+0 :    3B1u 0.0024913
  LUNO+1 :    4 Ag 0.0004482
  LUNO+2 :    2B2u 0.0001775
  LUNO+3 :    4B1u 0.0000006

Computation Completed

Properties will be evaluated at   0.000000,   0.000000,   0.000000 [a0]

Properties computed using the B3LYP density matrix

 Multipole Moments:

 ------------------------------------------------------------------------------------
     Multipole            Electronic (a.u.)      Nuclear  (a.u.)        Total (a.u.)
 ------------------------------------------------------------------------------------

 L = 1.  Multiply by 2.5417464519 to convert [e a0] to [Debye]
 Dipole X            :          0.0000000            0.0000000            0.0000000
 Dipole Y            :          0.0000000            0.0000000            0.0000000
 Dipole Z            :          0.0000000           -0.0000000           -0.0000000
 Magnitude           :                                                    0.0000000

 L = 2.  Multiply by 1.3450342976 to convert [e a0^2] to [Debye ang]
 Quadrupole XX       :         -8.6015130            0.0000000           -8.6015130
 Quadrupole XY       :          0.0000000            0.0000000            0.0000000
 Quadrupole XZ       :          0.0000000            0.0000000            0.0000000
 Quadrupole YY       :        -10.2765792            0.0000000          -10.2765792
 Quadrupole YZ       :          0.0000000            0.0000000            0.0000000
 Quadrupole ZZ       :        -41.7623196           33.2390259           -8.5232938
 Traceless XX        :         11.6119576          -11.0796753            0.5322823
 Traceless YY        :          9.9368914          -11.0796753           -1.1427839
 Traceless ZZ        :        -21.5488490           22.1593506            0.6105015

 ------------------------------------------------------------------------------------
  ==> Computing MBIS Charges <==

  Electron Count from Grid (Expected Number): 12.00000 (12.00000)
  Difference: -0.00000

  MBIS Charges: (a.u.)
   Center  Symbol  Z      Pop.       Charge
      1       C    6    6.000000    0.000000
      2       C    6    6.000000    0.000000

  MBIS Dipoles: [e a0]
   Center  Symbol  Z        X           Y           Z
      1       C    6   -0.000000    0.000000   -0.160774
      2       C    6   -0.000000    0.000000    0.160774

  MBIS Quadrupoles: [e a0^2]
   Center  Symbol  Z      XX        XY        XZ        YY        YZ        ZZ
      1       C    6   -4.3008    0.0000   -0.0000   -5.1383   -0.0000   -4.7968
      2       C    6   -4.3008    0.0000    0.0000   -5.1383    0.0000   -4.7968

  MBIS Octupoles: [e a0^3]
   Center  Symbol  Z      XXX       XXY       XXZ       XYY       XYZ       XZZ       YYY       YYZ       YZZ       ZZZ
      1       C    6   -0.0000   -0.0000   -0.2881   -0.0000    0.0000   -0.0000    0.0000   -0.5529    0.0000   -1.0873
      2       C    6   -0.0000   -0.0000    0.2881   -0.0000   -0.0000   -0.0000    0.0000    0.5529    0.0000    1.0873

  MBIS Radial Moments:
   Center  Symbol  Z      [a0^2]      [a0^3]      [a0^4]
      1       C    6   14.235847   35.705892   106.588129
      2       C    6   14.235847   35.705892   106.588129

  MBIS Valence Widths: [a0]
   Center  Symbol  Z     Width
      1       C    6    0.529360
      2       C    6    0.529360

*** tstop() called on Mac.lan at Sun Aug 10 17:04:48 2025
Module time:
	user time   =       3.70 seconds =       0.06 minutes
	system time =       2.10 seconds =       0.03 minutes
	total time  =          0 seconds =       0.00 minutes
Total time:
	user time   =      16.13 seconds =       0.27 minutes
	system time =       4.16 seconds =       0.07 minutes
	total time  =          2 seconds =       0.03 minutes

    Psi4 stopped on: Sunday, 10 August 2025 05:04PM
    Psi4 wall time for execution: 0:00:01.98

*** Psi4 exiting successfully. Buy a developer a beer!
