                               Psi4 1.9.1 release

  ==> Input File <==

--------------------------------------------------------------------------
molecule {
0 3
C           0.000000           0.000000           0.000000
C           0.000000           0.000000           0.924550
}

set {
basis              cc-pvtz
reference          uks
maxiter            500
DAMPING_PERCENTAGE 1
E_CONVERGENCE      1.0E-8
D_CONVERGENCE      1.0E-8
DIIS_MAX_VECS      400
MBIS_MAXITER       8000
guess              read
}

E, wfn = energy('b3lyp', restart_file='last_wfn', return_wfn=True)
properties('b3lyp','MBIS_CHARGES', wfn=wfn)
wfn.to_file('last_wfn')
--------------------------------------------------------------------------

    Molecular point group: d2h
  Charge       = 0
  Multiplicity = 3
  Basis Set: CC-PVTZ
    Blend: CC-PVTZ
  Basis Set: (CC-PVTZ AUX)
    Blend: CC-PVTZ-JKFIT
  @DF-UKS Final Energy:   -75.64972703689757
    Total Energy =                        -75.6497270368975734
 Dipole X            :          0.0000000            0.0000000            0.0000000
 Dipole Y            :          0.0000000            0.0000000            0.0000000
 Dipole Z            :          0.0000000           -0.0000000           -0.0000000
 Magnitude           :                                                    0.0000000
    Molecular point group: d2h

    Geometry (in Angstrom), charge = 0, multiplicity = 3:

       Center              X                  Y                   Z               Mass
    ------------   -----------------  -----------------  -----------------  -----------------
         C            0.000000000000     0.000000000000    -0.462275000000    12.000000000000
         C            0.000000000000     0.000000000000     0.462275000000    12.000000000000

  Charge       = 0
  Multiplicity = 3
  Basis Set: CC-PVTZ
    Blend: CC-PVTZ
  Basis Set: (CC-PVTZ AUX)
    Blend: CC-PVTZ-JKFIT

    Orbital Energies [Eh]
    ---------------------

    Alpha Occupied:

       1Ag   -10.198746     1B1u  -10.172089     2Ag    -0.832405
       2B1u   -0.408901     1B2u   -0.397118     1B3u   -0.397118
       3Ag    -0.377645

    Alpha Virtual:

       1B3g    0.096852     1B2g    0.096852     3B1u    0.180354
       4Ag     0.242602     2B2u    0.249461     2B3u    0.249461
       5Ag     0.364072     2B3g    0.431534     2B2g    0.431534
       6Ag     0.583230     1B1g    0.583230     4B1u    0.602435
       3B2u    0.861536     3B3u    0.861536     5B1u    0.886003
       6B1u    0.935280     1Au     0.935280     7Ag     1.065855
       3B2g    1.148770     3B3g    1.148770     4B3u    1.832176
       4B2u    1.832176     7B1u    2.026741     8Ag     2.242540
       4B2g    2.391834     4B3g    2.391834     5B3u    2.450727
       5B2u    2.450727     8B1u    2.464923     9Ag     2.511384
       2B1g    2.511385     6B2u    2.684600     6B3u    2.684600
      10Ag     2.818392     2Au     2.953747     9B1u    2.953747
       5B2g    2.961721     5B3g    2.961721     3B1g    3.043313
      11Ag     3.043313     6B2g    3.072131     6B3g    3.072131
      12Ag     3.455413    10B1u    3.567021     7B3u    3.885352
       7B2u    3.885352    11B1u    4.094956     3Au     4.094956
      12B1u    5.162045     7B2g    5.322169     7B3g    5.322169
      13Ag     6.182821    13B1u   18.438150

    Beta Occupied:

       1Ag   -10.175583     1B1u  -10.149810     2Ag    -0.790797
       1B3u   -0.369764     1B2u   -0.369764

    Beta Virtual:

       2B1u   -0.193512     3Ag    -0.151074     1B3g    0.137656
       1B2g    0.137656     3B1u    0.211618     2B2u    0.256263
       2B3u    0.256263     4Ag     0.278218     5Ag     0.418608
       2B3g    0.461895     2B2g    0.461895     1B1g    0.592458
       6Ag     0.592458     4B1u    0.650812     3B2u    0.914319
       3B3u    0.914319     5B1u    0.951913     1Au     0.957700
       6B1u    0.957700     7Ag     1.136978     3B2g    1.183875
       3B3g    1.183875     4B3u    1.847319     4B2u    1.847319
       7B1u    2.132022     8Ag     2.284552     4B2g    2.415315
       4B3g    2.415315     5B3u    2.462737     5B2u    2.462737
       8B1u    2.516817     2B1g    2.521633     9Ag     2.521634
       6B2u    2.776061     6B3u    2.776061    10Ag     2.968974
       2Au     3.013475     9B1u    3.013479     5B2g    3.062552
       5B3g    3.062552     6B2g    3.097000     6B3g    3.097000
       3B1g    3.103260    11Ag     3.103263    12Ag     3.527174
      10B1u    3.689345     7B3u    3.959127     7B2u    3.959127
       3Au     4.127710    11B1u    4.127714    12B1u    5.240520
       7B2g    5.387071     7B3g    5.387071    13Ag     6.230263
      13B1u   18.486411

    Final Occupation by Irrep:
             Ag   B1g   B2g   B3g    Au   B1u   B2u   B3u
    DOCC [     2,    0,    0,    0,    0,    1,    1,    1 ]
    SOCC [     1,    0,    0,    0,    0,    1,    0,    0 ]
    NA   [     3,    0,    0,    0,    0,    2,    1,    1 ]
    NB   [     2,    0,    0,    0,    0,    1,    1,    1 ]

  @DF-UKS Final Energy:   -75.64972703695220

   => Energetics <=

    Nuclear Repulsion Energy =             20.6050290239792346
    One-Electron Energy =                -141.4568922142888994
    Two-Electron Energy =                  54.1101522732436209
    DFT Exchange-Correlation Energy =      -8.9080161198861472
    Empirical Dispersion Energy =           0.0000000000000000
    VV10 Nonlocal Energy =                  0.0000000000000000
    Total Energy =                        -75.6497270369521999

  UHF NO Occupations:
  HONO-2 :    1B3u 1.9995665
  HONO-1 :    3 Ag 1.0000000
  HONO-0 :    2B1u 1.0000000
  LUNO+0 :    2B2u 0.0004335
  LUNO+1 :    2B3u 0.0004335
  LUNO+2 :    4 Ag 0.0003411
  LUNO+3 :    3B1u 0.0000009

Computation Completed

Properties will be evaluated at   0.000000,   0.000000,   0.000000 [a0]

Properties computed using the B3LYP density matrix

 Multipole Moments:

 ------------------------------------------------------------------------------------
     Multipole            Electronic (a.u.)      Nuclear  (a.u.)        Total (a.u.)
 ------------------------------------------------------------------------------------

 L = 1.  Multiply by 2.5417464519 to convert [e a0] to [Debye]
 Dipole X            :          0.0000000            0.0000000            0.0000000
 Dipole Y            :          0.0000000            0.0000000            0.0000000
 Dipole Z            :          0.0000000           -0.0000000           -0.0000000
 Magnitude           :                                                    0.0000000

 L = 2.  Multiply by 1.3450342976 to convert [e a0^2] to [Debye ang]
 Quadrupole XX       :         -7.9210909            0.0000000           -7.9210909
 Quadrupole XY       :          0.0000000            0.0000000            0.0000000
 Quadrupole XZ       :          0.0000000            0.0000000            0.0000000
 Quadrupole YY       :         -7.9210909            0.0000000           -7.9210909
 Quadrupole YZ       :          0.0000000            0.0000000            0.0000000
 Quadrupole ZZ       :        -16.0744859            9.1575605           -6.9169254
 Traceless XX        :          2.7177983           -3.0525202           -0.3347218
 Traceless YY        :          2.7177983           -3.0525202           -0.3347218
 Traceless ZZ        :         -5.4355966            6.1050403            0.6694437

 ------------------------------------------------------------------------------------
  ==> Computing MBIS Charges <==

  Electron Count from Grid (Expected Number): 12.00000 (12.00000)
  Difference:  0.00000

  MBIS Charges: (a.u.)
   Center  Symbol  Z      Pop.       Charge
      1       C    6    6.000000   -0.000000
      2       C    6    6.000000   -0.000000

  MBIS Dipoles: [e a0]
   Center  Symbol  Z        X           Y           Z
      1       C    6   -0.000000   -0.000000   -0.328840
      2       C    6   -0.000000    0.000000    0.328840

  MBIS Quadrupoles: [e a0^2]
   Center  Symbol  Z      XX        XY        XZ        YY        YZ        ZZ
      1       C    6   -3.9605    0.0000   -0.0000   -3.9605   -0.0000   -4.0330
      2       C    6   -3.9605    0.0000    0.0000   -3.9605    0.0000   -4.0330

  MBIS Octupoles: [e a0^3]
   Center  Symbol  Z      XXX       XXY       XXZ       XYY       XYZ       XZZ       YYY       YYZ       YZZ       ZZZ
      1       C    6   -0.0000   -0.0000   -0.2273   -0.0000    0.0000   -0.0000    0.0000   -0.2273    0.0000   -0.1114
      2       C    6   -0.0000   -0.0000    0.2273   -0.0000   -0.0000   -0.0000    0.0000    0.2273    0.0000    0.1114

  MBIS Radial Moments:
   Center  Symbol  Z      [a0^2]      [a0^3]      [a0^4]
      1       C    6   11.954086   27.705573   77.283548
      2       C    6   11.954086   27.705573   77.283548

  MBIS Valence Widths: [a0]
   Center  Symbol  Z     Width
      1       C    6    0.479693
      2       C    6    0.479693

*** tstop() called on Mac.lan at Sun Aug 10 17:03:46 2025
Module time:
	user time   =       4.09 seconds =       0.07 minutes
	system time =       1.93 seconds =       0.03 minutes
	total time  =          0 seconds =       0.00 minutes
Total time:
	user time   =      17.86 seconds =       0.30 minutes
	system time =       4.39 seconds =       0.07 minutes
	total time  =          2 seconds =       0.03 minutes

    Psi4 stopped on: Sunday, 10 August 2025 05:03PM
    Psi4 wall time for execution: 0:00:02.17

*** Psi4 exiting successfully. Buy a developer a beer!
