                               Psi4 1.9.1 release

  ==> Input File <==

--------------------------------------------------------------------------
molecule {
0 2
N           0.000000           0.000000           0.000000
C           0.000000           0.000000           1.744174
}

set {
basis              cc-pvtz
reference          uks
maxiter            500
DAMPING_PERCENTAGE 1
E_CONVERGENCE      1.0E-8
D_CONVERGENCE      1.0E-8
DIIS_MAX_VECS      400
MBIS_MAXITER       8000
guess              read
}

E, wfn = energy('b3lyp', restart_file='last_wfn', return_wfn=True)
properties('b3lyp','MBIS_CHARGES', wfn=wfn)
wfn.to_file('last_wfn')
--------------------------------------------------------------------------

    Molecular point group: c2v
  Charge       = 0
  Multiplicity = 2
  Basis Set: CC-PVTZ
    Blend: CC-PVTZ
  Basis Set: (CC-PVTZ AUX)
    Blend: CC-PVTZ-JKFIT
  @DF-UKS Final Energy:   -92.52730107238614
    Total Energy =                        -92.5273010723861375
 Dipole X            :          0.0000000            0.0000000            0.0000000
 Dipole Y            :          0.0000000            0.0000000            0.0000000
 Dipole Z            :          0.4378193            0.0023379            0.4401572
 Magnitude           :                                                    0.4401572
    Molecular point group: c2v

    Geometry (in Angstrom), charge = 0, multiplicity = 2:

       Center              X                  Y                   Z               Mass
    ------------   -----------------  -----------------  -----------------  -----------------
         N            0.000000000000     0.000000000000    -0.804908219560    14.003074004430
         C            0.000000000000     0.000000000000     0.939265780440    12.000000000000

  Charge       = 0
  Multiplicity = 2
  Basis Set: CC-PVTZ
    Blend: CC-PVTZ
  Basis Set: (CC-PVTZ AUX)
    Blend: CC-PVTZ-JKFIT

    Orbital Energies [Eh]
    ---------------------

    Alpha Occupied:

       1A1   -14.459571     2A1   -10.395725     3A1    -0.806214
       4A1    -0.587205     5A1    -0.392144     1B1    -0.315030
       1B2    -0.315030

    Alpha Virtual:

       2B1    -0.153235     2B2    -0.153235     6A1    -0.005196
       7A1     0.252979     3B1     0.292665     3B2     0.292665
       8A1     0.330612     9A1     0.435584     4B2     0.488604
       4B1     0.488604     1A2     0.634127    10A1     0.634127
       5B1     0.665828     5B2     0.665828    11A1     0.818388
      12A1     0.994611    13A1     1.058141     2A2     1.058141
       6B1     1.270852     6B2     1.270852    14A1     1.437798
       7B1     1.904740     7B2     1.904740    15A1     2.150788
      16A1     2.555527     8B2     2.573188     8B1     2.573188
      17A1     2.607104     3A2     2.607104     9B2     2.622892
       9B1     2.622892    18A1     2.874901     4A2     2.874908
      10B1     2.884992    10B2     2.884992    19A1     3.009226
      11B1     3.026432    11B2     3.026432    20A1     3.392404
      21A1     3.766812    12B2     3.867241    12B1     3.867241
      22A1     3.898583     5A2     3.898585    13B2     4.129648
      13B1     4.129648     6A2     4.413927    23A1     4.413955
      24A1     4.430954    14B2     4.671253    14B1     4.671253
      25A1     5.401226    26A1     6.128699

    Beta Occupied:

       1A1   -14.449956     2A1   -10.387049     3A1    -0.771905
       4A1    -0.535069     1B1    -0.307237     1B2    -0.307237

    Beta Virtual:

       5A1    -0.240743     2B1    -0.140829     2B2    -0.140829
       6A1     0.048214     7A1     0.283611     3B1     0.297277
       3B2     0.297277     8A1     0.348860     9A1     0.463852
       4B2     0.491582     4B1     0.491582    10A1     0.638648
       1A2     0.638648     5B1     0.691191     5B2     0.691191
      11A1     0.831968    12A1     1.030666    13A1     1.058231
       2A2     1.058232     6B1     1.297223     6B2     1.297223
      14A1     1.476770     7B1     1.913596     7B2     1.913596
      15A1     2.195247     8B2     2.598513     8B1     2.598513
      16A1     2.600444     9B1     2.627242     9B2     2.627242
      17A1     2.628621     3A2     2.628621    18A1     2.883144
       4A2     2.883152    10B1     2.899200    10B2     2.899200
      11B1     3.066145    11B2     3.066145    19A1     3.066705
      20A1     3.429857    21A1     3.800096    12B2     3.863663
      12B1     3.863663    22A1     3.917922     5A2     3.917923
      13B1     4.163842    13B2     4.163842     6A2     4.414135
      23A1     4.414163    24A1     4.496822    14B2     4.718407
      14B1     4.718407    25A1     5.447606    26A1     6.144670

    Final Occupation by Irrep:
             A1    A2    B1    B2
    DOCC [     4,    0,    1,    1 ]
    SOCC [     1,    0,    0,    0 ]
    NA   [     5,    0,    1,    1 ]
    NB   [     4,    0,    1,    1 ]

  @DF-UKS Final Energy:   -92.52730107015337

   => Energetics <=

    Nuclear Repulsion Energy =             12.7426752423439407
    One-Electron Energy =                -149.6056615020039544
    Two-Electron Energy =                  53.9076897952874035
    DFT Exchange-Correlation Energy =      -9.5720046057807817
    Empirical Dispersion Energy =           0.0000000000000000
    VV10 Nonlocal Energy =                  0.0000000000000000
    Total Energy =                        -92.5273010701533707

  UHF NO Occupations:
  HONO-2 :    1 B1 1.9993134
  HONO-1 :    4 A1 1.9957338
  HONO-0 :    5 A1 1.0000000
  LUNO+0 :    6 A1 0.0042662
  LUNO+1 :    2 B1 0.0006866
  LUNO+2 :    2 B2 0.0006866
  LUNO+3 :    7 A1 0.0003174

Computation Completed

Properties will be evaluated at   0.000000,   0.000000,   0.000000 [a0]

Properties computed using the B3LYP density matrix

 Multipole Moments:

 ------------------------------------------------------------------------------------
     Multipole            Electronic (a.u.)      Nuclear  (a.u.)        Total (a.u.)
 ------------------------------------------------------------------------------------

 L = 1.  Multiply by 2.5417464519 to convert [e a0] to [Debye]
 Dipole X            :          0.0000000            0.0000000            0.0000000
 Dipole Y            :          0.0000000            0.0000000            0.0000000
 Dipole Z            :          0.4378218            0.0023379            0.4401597
 Magnitude           :                                                    0.4401597

 L = 2.  Multiply by 1.3450342976 to convert [e a0^2] to [Debye ang]
 Quadrupole XX       :         -9.1877828            0.0000000           -9.1877828
 Quadrupole XY       :          0.0000000            0.0000000            0.0000000
 Quadrupole XZ       :          0.0000000            0.0000000            0.0000000
 Quadrupole YY       :         -9.1877828            0.0000000           -9.1877828
 Quadrupole YZ       :          0.0000000            0.0000000            0.0000000
 Quadrupole ZZ       :        -42.2876421           35.0980747           -7.1895674
 Traceless XX        :         11.0332864          -11.6993582           -0.6660718
 Traceless YY        :         11.0332864          -11.6993582           -0.6660718
 Traceless ZZ        :        -22.0665729           23.3987165            1.3321436

 ------------------------------------------------------------------------------------
  ==> Computing MBIS Charges <==

  Electron Count from Grid (Expected Number): 13.00000 (13.00000)
  Difference: -0.00000

  MBIS Charges: (a.u.)
   Center  Symbol  Z      Pop.       Charge
      1       N    7    7.170553   -0.170553
      2       C    6    5.829446    0.170554

  MBIS Dipoles: [e a0]
   Center  Symbol  Z        X           Y           Z
      1       N    7   -0.000000    0.000000   -0.289615
      2       C    6    0.000000   -0.000000    0.167628

  MBIS Quadrupoles: [e a0^2]
   Center  Symbol  Z      XX        XY        XZ        YY        YZ        ZZ
      1       N    7   -4.6958    0.0000    0.0000   -4.6958   -0.0000   -4.3638
      2       C    6   -4.4919    0.0000    0.0000   -4.4919    0.0000   -4.4446

  MBIS Octupoles: [e a0^3]
   Center  Symbol  Z      XXX       XXY       XXZ       XYY       XYZ       XZZ       YYY       YYZ       YZZ       ZZZ
      1       N    7   -0.0000   -0.0000   -0.4974   -0.0000    0.0000   -0.0000   -0.0000   -0.4974   -0.0000   -1.3482
      2       C    6   -0.0000   -0.0000    0.5171    0.0000   -0.0000    0.0000   -0.0000    0.5171   -0.0000    1.1758

  MBIS Radial Moments:
   Center  Symbol  Z      [a0^2]      [a0^3]      [a0^4]
      1       N    7   13.755512   30.428950   80.130266
      2       C    6   13.428457   33.329752   98.272081

  MBIS Valence Widths: [a0]
   Center  Symbol  Z     Width
      1       N    7    0.459421
      2       C    6    0.524721

*** tstop() called on Mac.lan at Sun Aug 10 17:16:05 2025
Module time:
	user time   =       4.40 seconds =       0.07 minutes
	system time =       2.00 seconds =       0.03 minutes
	total time  =          1 seconds =       0.02 minutes
Total time:
	user time   =      20.88 seconds =       0.35 minutes
	system time =       4.38 seconds =       0.07 minutes
	total time  =          3 seconds =       0.05 minutes

    Psi4 stopped on: Sunday, 10 August 2025 05:16PM
    Psi4 wall time for execution: 0:00:02.44

*** Psi4 exiting successfully. Buy a developer a beer!
