                               Psi4 1.9.1 release

  ==> Input File <==

--------------------------------------------------------------------------
molecule {
0 2
N           0.000000           0.000000           0.000000
C           0.000000           0.000000           0.761741
}

set {
basis              cc-pvtz
reference          uks
maxiter            500
DAMPING_PERCENTAGE 1
E_CONVERGENCE      1.0E-8
D_CONVERGENCE      1.0E-8
DIIS_MAX_VECS      400
MBIS_MAXITER       8000
guess              read
}

E, wfn = energy('b3lyp', restart_file='last_wfn', return_wfn=True)
properties('b3lyp','MBIS_CHARGES', wfn=wfn)
wfn.to_file('last_wfn')
--------------------------------------------------------------------------

    Molecular point group: c2v
  Charge       = 0
  Multiplicity = 2
  Basis Set: CC-PVTZ
    Blend: CC-PVTZ
  Basis Set: (CC-PVTZ AUX)
    Blend: CC-PVTZ-JKFIT
  @DF-UKS Final Energy:   -91.85997534144168
    Total Energy =                        -91.8599753414416824
 Dipole X            :          0.0000000            0.0000000            0.0000000
 Dipole Y            :          0.0000000            0.0000000            0.0000000
 Dipole Z            :          0.8492641            0.0010210            0.8502851
 Magnitude           :                                                    0.8502851
    Molecular point group: c2v

    Geometry (in Angstrom), charge = 0, multiplicity = 2:

       Center              X                  Y                   Z               Mass
    ------------   -----------------  -----------------  -----------------  -----------------
         N            0.000000000000     0.000000000000    -0.351531207366    14.003074004430
         C            0.000000000000     0.000000000000     0.410209792634    12.000000000000

  Charge       = 0
  Multiplicity = 2
  Basis Set: CC-PVTZ
    Blend: CC-PVTZ
  Basis Set: (CC-PVTZ AUX)
    Blend: CC-PVTZ-JKFIT

    Orbital Energies [Eh]
    ---------------------

    Alpha Occupied:

       1A1   -14.256908     2A1   -10.213119     3A1    -1.004229
       1B2    -0.528903     1B1    -0.528903     4A1    -0.446680
       5A1    -0.344765

    Alpha Virtual:

       2B1     0.132295     2B2     0.132295     6A1     0.188515
       7A1     0.232502     3B2     0.290617     3B1     0.290617
       8A1     0.476056     4B1     0.564222     4B2     0.564222
       1A2     0.618342     9A1     0.618342    10A1     0.834372
       5B1     1.006817     5B2     1.006817    11A1     1.121024
      12A1     1.293522     2A2     1.293522     6B1     1.504508
       6B2     1.504508    13A1     1.558650     7B2     1.944412
       7B1     1.944412    14A1     2.268081    15A1     2.527676
       8B1     2.599895     8B2     2.599895     3A2     2.805718
      16A1     2.805718     9B1     2.888596     9B2     2.888596
      17A1     2.947625     4A2     2.992987    18A1     2.992987
      10B2     3.410937    10B1     3.410937    19A1     3.527970
      11B2     3.826972    11B1     3.826972    12B2     4.178698
      12B1     4.178698    20A1     4.570066     5A2     4.570066
      21A1     4.787100    13B2     5.264768    13B1     5.264768
      22A1     5.440001     6A2     5.440002    23A1     5.761781
      14B2     6.616092    14B1     6.616092    24A1     6.750209
      25A1     8.026647    26A1    18.580015

    Beta Occupied:

       1A1   -14.254348     2A1   -10.193506     3A1    -0.991047
       1B2    -0.515789     1B1    -0.515789     4A1    -0.342799

    Beta Virtual:

       5A1    -0.220889     2B1     0.149405     2B2     0.149405
       6A1     0.195649     7A1     0.280831     3B2     0.306665
       3B1     0.306665     8A1     0.490625     4B1     0.583170
       4B2     0.583170     1A2     0.632701     9A1     0.632701
      10A1     0.883780     5B1     1.031114     5B2     1.031114
      11A1     1.134923     2A2     1.296370    12A1     1.296371
       6B1     1.515713     6B2     1.515713    13A1     1.601379
       7B2     1.966863     7B1     1.966863    14A1     2.302483
      15A1     2.612132     8B1     2.620813     8B2     2.620813
       3A2     2.834549    16A1     2.834549     9B1     2.984373
       9B2     2.984373    17A1     3.020510     4A2     3.046341
      18A1     3.046344    10B2     3.418997    10B1     3.418997
      19A1     3.569592    11B2     3.856766    11B1     3.856766
      12B2     4.180041    12B1     4.180041    20A1     4.566343
       5A2     4.566343    21A1     4.803591    13B2     5.276484
      13B1     5.276484     6A2     5.451695    22A1     5.451696
      23A1     5.777114    14B2     6.643461    14B1     6.643461
      24A1     6.792315    25A1     8.041215    26A1    18.607955

    Final Occupation by Irrep:
             A1    A2    B1    B2
    DOCC [     4,    0,    1,    1 ]
    SOCC [     1,    0,    0,    0 ]
    NA   [     5,    0,    1,    1 ]
    NB   [     4,    0,    1,    1 ]

  @DF-UKS Final Energy:   -91.85997534194790

   => Energetics <=

    Nuclear Repulsion Energy =             29.1771650050870335
    One-Electron Energy =                -180.4696465645512546
    Two-Electron Energy =                  69.8257741303834223
    DFT Exchange-Correlation Energy =     -10.3932679128671026
    Empirical Dispersion Energy =           0.0000000000000000
    VV10 Nonlocal Energy =                  0.0000000000000000
    Total Energy =                        -91.8599753419479015

  UHF NO Occupations:
  HONO-2 :    1 B1 1.9992353
  HONO-1 :    1 B2 1.9992353
  HONO-0 :    5 A1 1.0000000
  LUNO+0 :    2 B1 0.0007647
  LUNO+1 :    2 B2 0.0007647
  LUNO+2 :    6 A1 0.0000416
  LUNO+3 :    7 A1 0.0000052

Computation Completed

Properties will be evaluated at   0.000000,   0.000000,   0.000000 [a0]

Properties computed using the B3LYP density matrix

 Multipole Moments:

 ------------------------------------------------------------------------------------
     Multipole            Electronic (a.u.)      Nuclear  (a.u.)        Total (a.u.)
 ------------------------------------------------------------------------------------

 L = 1.  Multiply by 2.5417464519 to convert [e a0] to [Debye]
 Dipole X            :          0.0000000            0.0000000            0.0000000
 Dipole Y            :          0.0000000            0.0000000            0.0000000
 Dipole Z            :          0.8492641            0.0010210            0.8502851
 Magnitude           :                                                    0.8502851

 L = 2.  Multiply by 1.3450342976 to convert [e a0^2] to [Debye ang]
 Quadrupole XX       :         -6.8626009            0.0000000           -6.8626009
 Quadrupole XY       :          0.0000000            0.0000000            0.0000000
 Quadrupole XZ       :          0.0000000            0.0000000            0.0000000
 Quadrupole YY       :         -6.8626009            0.0000000           -6.8626009
 Quadrupole YZ       :          0.0000000            0.0000000            0.0000000
 Quadrupole ZZ       :        -14.2935991            6.6945030           -7.5990961
 Traceless XX        :          2.4769994           -2.2315010            0.2454984
 Traceless YY        :          2.4769994           -2.2315010            0.2454984
 Traceless ZZ        :         -4.9539988            4.4630020           -0.4909968

 ------------------------------------------------------------------------------------
  ==> Computing MBIS Charges <==

  Electron Count from Grid (Expected Number): 13.00000 (13.00000)
  Difference: -0.00000

  MBIS Charges: (a.u.)
   Center  Symbol  Z      Pop.       Charge
      1       N    7    7.582586   -0.582586
      2       C    6    5.417414    0.582586

  MBIS Dipoles: [e a0]
   Center  Symbol  Z        X           Y           Z
      1       N    7    0.000000   -0.000000   -0.049377
      2       C    6   -0.000000   -0.000000    0.061041

  MBIS Quadrupoles: [e a0^2]
   Center  Symbol  Z      XX        XY        XZ        YY        YZ        ZZ
      1       N    7   -4.0280    0.0000   -0.0000   -4.0280    0.0000   -4.6865
      2       C    6   -2.8346    0.0000    0.0000   -2.8346    0.0000   -3.1658

  MBIS Octupoles: [e a0^3]
   Center  Symbol  Z      XXX       XXY       XXZ       XYY       XYZ       XZZ       YYY       YYZ       YZZ       ZZZ
      1       N    7   -0.0000   -0.0000    0.0771   -0.0000    0.0000   -0.0000   -0.0000    0.0771    0.0000    0.6463
      2       C    6   -0.0000   -0.0000   -0.1321   -0.0000    0.0000    0.0000    0.0000   -0.1321    0.0000   -0.5174

  MBIS Radial Moments:
   Center  Symbol  Z      [a0^2]      [a0^3]      [a0^4]
      1       N    7   12.742512   26.450467   66.250739
      2       C    6    8.835015   19.131851   50.319551

  MBIS Valence Widths: [a0]
   Center  Symbol  Z     Width
      1       N    7    0.421963
      2       C    6    0.440018

*** tstop() called on Mac.lan at Sun Aug 10 17:13:32 2025
Module time:
	user time   =       3.83 seconds =       0.06 minutes
	system time =       2.78 seconds =       0.05 minutes
	total time  =          0 seconds =       0.00 minutes
Total time:
	user time   =      19.41 seconds =       0.32 minutes
	system time =       6.04 seconds =       0.10 minutes
	total time  =          2 seconds =       0.03 minutes

    Psi4 stopped on: Sunday, 10 August 2025 05:13PM
    Psi4 wall time for execution: 0:00:02.48

*** Psi4 exiting successfully. Buy a developer a beer!
