                               Psi4 1.9.1 release

  ==> Input File <==

--------------------------------------------------------------------------
molecule {
0 3
C           0.000000           0.000000           0.000000
C           0.000000           0.000000           1.115836
}

set {
basis              cc-pvtz
reference          uks
maxiter            500
DAMPING_PERCENTAGE 1
E_CONVERGENCE      1.0E-8
D_CONVERGENCE      1.0E-8
DIIS_MAX_VECS      400
MBIS_MAXITER       8000
guess              read
}

E, wfn = energy('b3lyp', restart_file='last_wfn', return_wfn=True)
properties('b3lyp','MBIS_CHARGES', wfn=wfn)
wfn.to_file('last_wfn')
--------------------------------------------------------------------------

    Molecular point group: d2h
  Charge       = 0
  Multiplicity = 3
  Basis Set: CC-PVTZ
    Blend: CC-PVTZ
  Basis Set: (CC-PVTZ AUX)
    Blend: CC-PVTZ-JKFIT
  @DF-UKS Final Energy:   -75.88440791470356
    Total Energy =                        -75.8844079147035586
 Dipole X            :          0.0000000            0.0000000            0.0000000
 Dipole Y            :          0.0000000            0.0000000            0.0000000
 Dipole Z            :          0.0000000            0.0000000            0.0000000
 Magnitude           :                                                    0.0000000
    Molecular point group: d2h

    Geometry (in Angstrom), charge = 0, multiplicity = 3:

       Center              X                  Y                   Z               Mass
    ------------   -----------------  -----------------  -----------------  -----------------
         C            0.000000000000     0.000000000000    -0.557918000000    12.000000000000
         C            0.000000000000     0.000000000000     0.557918000000    12.000000000000

  Charge       = 0
  Multiplicity = 3
  Basis Set: CC-PVTZ
    Blend: CC-PVTZ
  Basis Set: (CC-PVTZ AUX)
    Blend: CC-PVTZ-JKFIT

    Orbital Energies [Eh]
    ---------------------

    Alpha Occupied:

       1Ag   -10.256583     1B1u  -10.251204     2Ag    -0.890492
       2B1u   -0.423059     1B3u   -0.418343     1B2u   -0.378242
       3Ag    -0.362692

    Alpha Virtual:

       1B2g    0.006705     1B3g    0.032782     3B1u    0.185939
       2B3u    0.239136     2B2u    0.254607     4Ag     0.256763
       5Ag     0.332158     2B2g    0.374534     2B3g    0.390115
       1B1g    0.539306     6Ag     0.540125     4B1u    0.552446
       5B1u    0.739053     3B3u    0.778489     3B2u    0.801853
       1Au     0.879197     6B1u    0.880246     7Ag     1.117832
       3B2g    1.127743     3B3g    1.142693     7B1u    1.582347
       4B3u    1.849363     4B2u    1.879163     8Ag     2.083669
       4B2g    2.234696     4B3g    2.263905     8B1u    2.329697
       2B1g    2.408647     9Ag     2.409948     5B3u    2.426086
       5B2u    2.426230     6B3u    2.512993     6B2u    2.545020
      10Ag     2.759688     5B2g    2.909963     5B3g    2.914666
       6B2g    2.920144     6B3g    2.935243     3B1g    2.935939
      11Ag     2.936718     9B1u    2.990244     2Au     2.990298
      10B1u    3.423243    12Ag     3.516068     7B3u    3.560610
       7B2u    3.587328     3Au     3.676060    11B1u    3.676701
      12B1u    4.276001     7B2g    4.872176     7B3g    4.902738
      13Ag     5.403143    13B1u   15.256580

    Beta Occupied:

       1Ag   -10.239033     1B1u  -10.234286     2Ag    -0.815538
       1B2u   -0.357354     2B1u   -0.333442

    Beta Virtual:

       1B3u   -0.254495     3Ag    -0.211684     1B3g    0.055028
       1B2g    0.073684     3B1u    0.198667     2B2u    0.260855
       2B3u    0.269688     4Ag     0.277133     5Ag     0.369971
       2B3g    0.400439     2B2g    0.411924     1B1g    0.569270
       6Ag     0.572087     4B1u    0.584425     5B1u    0.781454
       3B2u    0.829298     3B3u    0.831825     1Au     0.903509
       6B1u    0.905405     7Ag     1.157502     3B3g    1.161116
       3B2g    1.164168     7B1u    1.635930     4B2u    1.893509
       4B3u    1.906489     8Ag     2.131621     4B3g    2.277242
       4B2g    2.285994     8B1u    2.377860     2B1g    2.451051
       9Ag     2.454510     5B2u    2.463315     5B3u    2.464384
       6B2u    2.584416     6B3u    2.597656    10Ag     2.834825
       5B3g    2.951941     5B2g    2.952955     6B3g    2.981620
       3B1g    2.985602     6B2g    2.986761    11Ag     2.989997
       2Au     3.037829     9B1u    3.042239    10B1u    3.481619
      12Ag     3.557597     7B2u    3.627480     7B3u    3.631212
       3Au     3.717813    11B1u    3.721217    12B1u    4.335389
       7B3g    4.934659     7B2g    4.945743    13Ag     5.445435
      13B1u   15.282682

    Final Occupation by Irrep:
             Ag   B1g   B2g   B3g    Au   B1u   B2u   B3u
    DOCC [     2,    0,    0,    0,    0,    2,    1,    0 ]
    SOCC [     1,    0,    0,    0,    0,    0,    0,    1 ]
    NA   [     3,    0,    0,    0,    0,    2,    1,    1 ]
    NB   [     2,    0,    0,    0,    0,    2,    1,    0 ]

  @DF-UKS Final Energy:   -75.88440791476391

   => Energetics <=

    Nuclear Repulsion Energy =             17.0727414997544464
    One-Electron Energy =                -134.6877315514107920
    Two-Electron Energy =                  50.4258239346105412
    DFT Exchange-Correlation Energy =      -8.6952417977181060
    Empirical Dispersion Energy =           0.0000000000000000
    VV10 Nonlocal Energy =                  0.0000000000000000
    Total Energy =                        -75.8844079147639121

  UHF NO Occupations:
  HONO-2 :    2B1u 1.9984722
  HONO-1 :    3 Ag 1.0000000
  HONO-0 :    1B3u 1.0000000
  LUNO+0 :    3B1u 0.0015278
  LUNO+1 :    4 Ag 0.0003734
  LUNO+2 :    2B2u 0.0001315
  LUNO+3 :    4B1u 0.0000007

Computation Completed

Properties will be evaluated at   0.000000,   0.000000,   0.000000 [a0]

Properties computed using the B3LYP density matrix

 Multipole Moments:

 ------------------------------------------------------------------------------------
     Multipole            Electronic (a.u.)      Nuclear  (a.u.)        Total (a.u.)
 ------------------------------------------------------------------------------------

 L = 1.  Multiply by 2.5417464519 to convert [e a0] to [Debye]
 Dipole X            :          0.0000000            0.0000000            0.0000000
 Dipole Y            :          0.0000000            0.0000000            0.0000000
 Dipole Z            :          0.0000000            0.0000000            0.0000000
 Magnitude           :                                                    0.0000000

 L = 2.  Multiply by 1.3450342976 to convert [e a0^2] to [Debye ang]
 Quadrupole XX       :         -7.4622297            0.0000000           -7.4622297
 Quadrupole XY       :          0.0000000            0.0000000            0.0000000
 Quadrupole XZ       :          0.0000000            0.0000000            0.0000000
 Quadrupole YY       :         -8.7529634            0.0000000           -8.7529634
 Quadrupole YZ       :          0.0000000            0.0000000            0.0000000
 Quadrupole ZZ       :        -22.6089555           13.3388911           -9.2700644
 Traceless XX        :          5.4791532           -4.4462970            1.0328561
 Traceless YY        :          4.1884195           -4.4462970           -0.2578776
 Traceless ZZ        :         -9.6675726            8.8925941           -0.7749786

 ------------------------------------------------------------------------------------
  ==> Computing MBIS Charges <==

  Electron Count from Grid (Expected Number): 12.00000 (12.00000)
  Difference: -0.00000

  MBIS Charges: (a.u.)
   Center  Symbol  Z      Pop.       Charge
      1       C    6    6.000000    0.000000
      2       C    6    6.000000    0.000000

  MBIS Dipoles: [e a0]
   Center  Symbol  Z        X           Y           Z
      1       C    6   -0.000000    0.000000    0.002688
      2       C    6   -0.000000    0.000000   -0.002688

  MBIS Quadrupoles: [e a0^2]
   Center  Symbol  Z      XX        XY        XZ        YY        YZ        ZZ
      1       C    6   -3.7311   -0.0000   -0.0000   -4.3765   -0.0000   -4.6294
      2       C    6   -3.7311   -0.0000    0.0000   -4.3765    0.0000   -4.6294

  MBIS Octupoles: [e a0^3]
   Center  Symbol  Z      XXX       XXY       XXZ       XYY       XYZ       XZZ       YYY       YYZ       YZZ       ZZZ
      1       C    6   -0.0000    0.0000    0.2073   -0.0000    0.0000   -0.0000    0.0000    0.0167    0.0000    0.4002
      2       C    6   -0.0000    0.0000   -0.2073   -0.0000   -0.0000   -0.0000    0.0000   -0.0167    0.0000   -0.4002

  MBIS Radial Moments:
   Center  Symbol  Z      [a0^2]      [a0^3]      [a0^4]
      1       C    6   12.736960   30.301924   86.359509
      2       C    6   12.736960   30.301924   86.359509

  MBIS Valence Widths: [a0]
   Center  Symbol  Z     Width
      1       C    6    0.497321
      2       C    6    0.497321

*** tstop() called on Mac.lan at Sun Aug 10 17:03:26 2025
Module time:
	user time   =       4.03 seconds =       0.07 minutes
	system time =       2.22 seconds =       0.04 minutes
	total time  =          0 seconds =       0.00 minutes
Total time:
	user time   =      16.39 seconds =       0.27 minutes
	system time =       5.02 seconds =       0.08 minutes
	total time  =          2 seconds =       0.03 minutes

    Psi4 stopped on: Sunday, 10 August 2025 05:03PM
    Psi4 wall time for execution: 0:00:02.08

*** Psi4 exiting successfully. Buy a developer a beer!
