                               Psi4 1.9.1 release

  ==> Input File <==

--------------------------------------------------------------------------
molecule {
0 2
N           0.000000           0.000000           0.000000
C           0.000000           0.000000           1.487887
}

set {
basis              cc-pvtz
reference          uks
maxiter            500
DAMPING_PERCENTAGE 1
E_CONVERGENCE      1.0E-8
D_CONVERGENCE      1.0E-8
DIIS_MAX_VECS      400
MBIS_MAXITER       8000
guess              read
}

E, wfn = energy('b3lyp', restart_file='last_wfn', return_wfn=True)
properties('b3lyp','MBIS_CHARGES', wfn=wfn)
wfn.to_file('last_wfn')
--------------------------------------------------------------------------

    Molecular point group: c2v
  Charge       = 0
  Multiplicity = 2
  Basis Set: CC-PVTZ
    Blend: CC-PVTZ
  Basis Set: (CC-PVTZ AUX)
    Blend: CC-PVTZ-JKFIT
  @DF-UKS Final Energy:   -92.63724512673400
    Total Energy =                        -92.6372451267340011
 Dipole X            :          0.0000000            0.0000000            0.0000000
 Dipole Y            :          0.0000000            0.0000000            0.0000000
 Dipole Z            :          0.3963452            0.0019943            0.3983396
 Magnitude           :                                                    0.3983396
    Molecular point group: c2v

    Geometry (in Angstrom), charge = 0, multiplicity = 2:

       Center              X                  Y                   Z               Mass
    ------------   -----------------  -----------------  -----------------  -----------------
         N            0.000000000000     0.000000000000    -0.686635895316    14.003074004430
         C            0.000000000000     0.000000000000     0.801251104684    12.000000000000

  Charge       = 0
  Multiplicity = 2
  Basis Set: CC-PVTZ
    Blend: CC-PVTZ
  Basis Set: (CC-PVTZ AUX)
    Blend: CC-PVTZ-JKFIT

    Orbital Energies [Eh]
    ---------------------

    Alpha Occupied:

       1A1   -14.448923     2A1   -10.366855     3A1    -0.863007
       4A1    -0.560595     5A1    -0.407349     1B1    -0.342762
       1B2    -0.342762

    Alpha Virtual:

       2B1    -0.110606     2B2    -0.110606     6A1     0.122304
       7A1     0.285113     3B2     0.291690     3B1     0.291690
       8A1     0.305237     9A1     0.433656     4B2     0.498236
       4B1     0.498236     1A2     0.628303    10A1     0.628303
       5B2     0.717059     5B1     0.717059    11A1     0.871231
      12A1     1.030344    13A1     1.086202     2A2     1.086202
       6B1     1.371187     6B2     1.371187    14A1     1.571112
       7B1     1.945840     7B2     1.945840    15A1     2.132939
       8B2     2.601201     8B1     2.601201     3A2     2.616198
      16A1     2.616198     9B1     2.627303     9B2     2.627303
      17A1     2.791420     4A2     2.893634    18A1     2.893636
      10B2     2.903552    10B1     2.903552    19A1     3.023442
      11B2     3.181816    11B1     3.181816    20A1     3.210717
      12B1     3.870222    12B2     3.870222    21A1     4.033345
       5A2     4.033346    22A1     4.240745    13B1     4.430766
      13B2     4.430766    23A1     4.442908     6A2     4.442922
      24A1     4.779968    14B2     4.896957    14B1     4.896957
      25A1     5.454912    26A1     7.748391

    Beta Occupied:

       1A1   -14.440650     2A1   -10.355779     3A1    -0.833645
       4A1    -0.495949     1B1    -0.335310     1B2    -0.335310

    Beta Virtual:

       5A1    -0.252571     2B1    -0.094637     2B2    -0.094637
       6A1     0.143778     3B2     0.297767     3B1     0.297767
       7A1     0.325553     8A1     0.333885     9A1     0.460365
       4B2     0.499915     4B1     0.499915     1A2     0.634573
      10A1     0.634573     5B2     0.744326     5B1     0.744326
      11A1     0.882951    12A1     1.067239    13A1     1.086979
       2A2     1.086979     6B1     1.395464     6B2     1.395464
      14A1     1.602689     7B1     1.956504     7B2     1.956504
      15A1     2.179711     8B2     2.623142     8B1     2.623142
       9B1     2.635778     9B2     2.635778     3A2     2.638910
      16A1     2.638911    17A1     2.842931     4A2     2.909630
      18A1     2.909632    10B2     2.930175    10B1     2.930175
      19A1     3.069466    11B2     3.221898    11B1     3.221898
      20A1     3.262737    12B1     3.865950    12B2     3.865950
      21A1     4.047359     5A2     4.047360    22A1     4.277284
      23A1     4.443881     6A2     4.443895    13B2     4.463156
      13B1     4.463156    24A1     4.838394    14B2     4.936186
      14B1     4.936186    25A1     5.480326    26A1     7.769247

    Final Occupation by Irrep:
             A1    A2    B1    B2
    DOCC [     4,    0,    1,    1 ]
    SOCC [     1,    0,    0,    0 ]
    NA   [     5,    0,    1,    1 ]
    NB   [     4,    0,    1,    1 ]

  @DF-UKS Final Energy:   -92.63724510417863

   => Energetics <=

    Nuclear Repulsion Energy =             14.9375879002504917
    One-Electron Energy =                -154.0696545281186900
    Two-Electron Energy =                  56.1369772004976895
    DFT Exchange-Correlation Energy =      -9.6421556768081160
    Empirical Dispersion Energy =           0.0000000000000000
    VV10 Nonlocal Energy =                  0.0000000000000000
    Total Energy =                        -92.6372451041786320

  UHF NO Occupations:
  HONO-2 :    1 B2 1.9990314
  HONO-1 :    4 A1 1.9968503
  HONO-0 :    5 A1 1.0000000
  LUNO+0 :    6 A1 0.0031497
  LUNO+1 :    2 B2 0.0009686
  LUNO+2 :    2 B1 0.0009686
  LUNO+3 :    7 A1 0.0002270

Computation Completed

Properties will be evaluated at   0.000000,   0.000000,   0.000000 [a0]

Properties computed using the B3LYP density matrix

 Multipole Moments:

 ------------------------------------------------------------------------------------
     Multipole            Electronic (a.u.)      Nuclear  (a.u.)        Total (a.u.)
 ------------------------------------------------------------------------------------

 L = 1.  Multiply by 2.5417464519 to convert [e a0] to [Debye]
 Dipole X            :          0.0000000            0.0000000            0.0000000
 Dipole Y            :          0.0000000            0.0000000            0.0000000
 Dipole Z            :          0.3963458            0.0019943            0.3983401
 Magnitude           :                                                    0.3983401

 L = 2.  Multiply by 1.3450342976 to convert [e a0^2] to [Debye ang]
 Quadrupole XX       :         -8.8389413            0.0000000           -8.8389413
 Quadrupole XY       :          0.0000000            0.0000000            0.0000000
 Quadrupole XZ       :          0.0000000            0.0000000            0.0000000
 Quadrupole YY       :         -8.8389413            0.0000000           -8.8389413
 Quadrupole YZ       :          0.0000000            0.0000000            0.0000000
 Quadrupole ZZ       :        -33.0310650           25.5413340           -7.4897310
 Traceless XX        :          8.0640412           -8.5137780           -0.4497368
 Traceless YY        :          8.0640412           -8.5137780           -0.4497368
 Traceless ZZ        :        -16.1280825           17.0275560            0.8994735

 ------------------------------------------------------------------------------------
  ==> Computing MBIS Charges <==

  Electron Count from Grid (Expected Number): 13.00000 (13.00000)
  Difference:  0.00000

  MBIS Charges: (a.u.)
   Center  Symbol  Z      Pop.       Charge
      1       N    7    7.178156   -0.178156
      2       C    6    5.821844    0.178156

  MBIS Dipoles: [e a0]
   Center  Symbol  Z        X           Y           Z
      1       N    7    0.000000   -0.000000   -0.264316
      2       C    6   -0.000000    0.000000    0.161735

  MBIS Quadrupoles: [e a0^2]
   Center  Symbol  Z      XX        XY        XZ        YY        YZ        ZZ
      1       N    7   -4.5184    0.0000   -0.0000   -4.5184   -0.0000   -4.4041
      2       C    6   -4.3206    0.0000   -0.0000   -4.3206    0.0000   -4.3699

  MBIS Octupoles: [e a0^3]
   Center  Symbol  Z      XXX       XXY       XXZ       XYY       XYZ       XZZ       YYY       YYZ       YZZ       ZZZ
      1       N    7   -0.0000   -0.0000   -0.4092    0.0000    0.0000   -0.0000    0.0000   -0.4092    0.0000   -1.0723
      2       C    6   -0.0000   -0.0000    0.3973   -0.0000   -0.0000   -0.0000    0.0000    0.3973    0.0000    0.8464

  MBIS Radial Moments:
   Center  Symbol  Z      [a0^2]      [a0^3]      [a0^4]
      1       N    7   13.440761   29.239850   75.753421
      2       C    6   13.011058   31.704572   91.757055

  MBIS Valence Widths: [a0]
   Center  Symbol  Z     Width
      1       N    7    0.453939
      2       C    6    0.516738

*** tstop() called on Mac.lan at Sun Aug 10 17:14:28 2025
Module time:
	user time   =       3.50 seconds =       0.06 minutes
	system time =       2.39 seconds =       0.04 minutes
	total time  =          0 seconds =       0.00 minutes
Total time:
	user time   =      22.98 seconds =       0.38 minutes
	system time =       4.74 seconds =       0.08 minutes
	total time  =          3 seconds =       0.05 minutes

    Psi4 stopped on: Sunday, 10 August 2025 05:14PM
    Psi4 wall time for execution: 0:00:02.67

*** Psi4 exiting successfully. Buy a developer a beer!
