                               Psi4 1.9.1 release

  ==> Input File <==

--------------------------------------------------------------------------
molecule {
0 2
O           0.000000           0.000000           0.000000
H           0.000000           0.000000           0.727971
}

set {
basis              cc-pvtz
reference          uks
maxiter            500
DAMPING_PERCENTAGE 1
E_CONVERGENCE      1.0E-8
D_CONVERGENCE      1.0E-8
DIIS_MAX_VECS      400
MBIS_MAXITER       8000
guess              read
}

E, wfn = energy('b3lyp', restart_file='last_wfn', return_wfn=True)
properties('b3lyp','MBIS_CHARGES', wfn=wfn)
wfn.to_file('last_wfn')
--------------------------------------------------------------------------

    Molecular point group: c2v
  Charge       = 0
  Multiplicity = 2
  Basis Set: CC-PVTZ
    Blend: CC-PVTZ
  Basis Set: (CC-PVTZ AUX)
    Blend: CC-PVTZ-JKFIT
  @DF-UKS Final Energy:   -75.66377135745034
    Total Energy =                        -75.6637713574503437
 Dipole X            :          0.0000000            0.0000000            0.0000000
 Dipole Y            :          0.0000000            0.0000000            0.0000000
 Dipole Z            :         -0.0297631            0.6417915            0.6120284
 Magnitude           :                                                    0.6120284
    Molecular point group: c2v

    Geometry (in Angstrom), charge = 0, multiplicity = 2:

       Center              X                  Y                   Z               Mass
    ------------   -----------------  -----------------  -----------------  -----------------
         O            0.000000000000     0.000000000000    -0.043149951806    15.994914619570
         H            0.000000000000     0.000000000000     0.684821048194     1.007825032230

  Charge       = 0
  Multiplicity = 2
  Basis Set: CC-PVTZ
    Blend: CC-PVTZ
  Basis Set: (CC-PVTZ AUX)
    Blend: CC-PVTZ-JKFIT

    Orbital Energies [Eh]
    ---------------------

    Alpha Occupied:

       1A1   -19.176687     2A1    -1.113263     3A1    -0.514229
       1B1    -0.431829     1B2    -0.358771

    Alpha Virtual:

       4A1     0.059386     5A1     0.478149     2B1     0.521631
       6A1     0.547011     2B2     0.555501     3B1     0.732349
       3B2     0.752899     7A1     0.810922     8A1     1.410503
       1A2     1.411439     9A1     1.585513     4B1     1.807436
       4B2     1.845003    10A1     1.889848    11A1     2.648727
       2A2     3.302797    12A1     3.302928     5B1     3.370153
       5B2     3.398747     6B1     3.604925     6B2     3.658502
      13A1     3.903906     7B1     4.299808     7B2     4.330295
      14A1     4.538901     8B1     5.055446     8B2     5.055716
      15A1     5.518089     3A2     5.711248    16A1     5.713062
       4A2     6.111972    17A1     6.113262     9B1     6.195265
       9B2     6.248788    18A1     7.237593    19A1     7.508310
      10B1     7.701917    10B2     7.749199    20A1    13.044094

    Beta Occupied:

       1A1   -19.151781     2A1    -1.048441     3A1    -0.483059
       1B2    -0.333267

    Beta Virtual:

       1B1    -0.184144     4A1     0.064137     5A1     0.484840
       6A1     0.556251     2B2     0.565072     2B1     0.588455
       3B2     0.754488     3B1     0.758372     7A1     0.833958
       1A2     1.464116     8A1     1.469682     9A1     1.603640
       4B2     1.850664     4B1     1.854879    10A1     1.910966
      11A1     2.657738     2A2     3.318027    12A1     3.319129
       5B2     3.401409     5B1     3.408200     6B2     3.675264
       6B1     3.700590    13A1     3.914743     7B2     4.333063
       7B1     4.333949    14A1     4.570411     8B2     5.125794
       8B1     5.128727    15A1     5.556231     3A2     5.754707
      16A1     5.759385     4A2     6.203744    17A1     6.218296
       9B2     6.258394     9B1     6.268471    18A1     7.260415
      19A1     7.525624    10B2     7.757863    10B1     7.767368
      20A1    13.072928

    Final Occupation by Irrep:
             A1    A2    B1    B2
    DOCC [     3,    0,    0,    1 ]
    SOCC [     0,    0,    1,    0 ]
    NA   [     3,    0,    1,    1 ]
    NB   [     3,    0,    0,    1 ]

  @DF-UKS Final Energy:   -75.66377135757524

   => Energetics <=

    Nuclear Repulsion Energy =              5.8153658392435963
    One-Electron Energy =                -115.0955876794589301
    Two-Electron Energy =                  40.9270030157840594
    DFT Exchange-Correlation Energy =      -7.3105525331439631
    Empirical Dispersion Energy =           0.0000000000000000
    VV10 Nonlocal Energy =                  0.0000000000000000
    Total Energy =                        -75.6637713575752429

  UHF NO Occupations:
  HONO-2 :    1 B2 1.9998570
  HONO-1 :    3 A1 1.9993722
  HONO-0 :    1 B1 1.0000000
  LUNO+0 :    4 A1 0.0006278
  LUNO+1 :    2 B2 0.0001430
  LUNO+2 :    5 A1 0.0001049
  LUNO+3 :    6 A1 0.0000006

Computation Completed

Properties will be evaluated at   0.000000,   0.000000,   0.000000 [a0]

Properties computed using the B3LYP density matrix

 Multipole Moments:

 ------------------------------------------------------------------------------------
     Multipole            Electronic (a.u.)      Nuclear  (a.u.)        Total (a.u.)
 ------------------------------------------------------------------------------------

 L = 1.  Multiply by 2.5417464519 to convert [e a0] to [Debye]
 Dipole X            :          0.0000000            0.0000000            0.0000000
 Dipole Y            :          0.0000000            0.0000000            0.0000000
 Dipole Z            :         -0.0297631            0.6417915            0.6120284
 Magnitude           :                                                    0.6120284

 L = 2.  Multiply by 1.3450342976 to convert [e a0^2] to [Debye ang]
 Quadrupole XX       :         -3.8186523            0.0000000           -3.8186523
 Quadrupole XY       :          0.0000000            0.0000000            0.0000000
 Quadrupole XZ       :          0.0000000            0.0000000            0.0000000
 Quadrupole YY       :         -4.6968990            0.0000000           -4.6968990
 Quadrupole YZ       :          0.0000000            0.0000000            0.0000000
 Quadrupole ZZ       :         -5.2876759            1.7279498           -3.5597262
 Traceless XX        :          0.7824234           -0.5759833            0.2064402
 Traceless YY        :         -0.0958233           -0.5759833           -0.6718065
 Traceless ZZ        :         -0.6866002            1.1519665            0.4653663

 ------------------------------------------------------------------------------------
  ==> Computing MBIS Charges <==

  Electron Count from Grid (Expected Number):  9.00000 ( 9.00000)
  Difference:  0.00000

  MBIS Charges: (a.u.)
   Center  Symbol  Z      Pop.       Charge
      1       O    8    8.431205   -0.431205
      2       H    1    0.568795    0.431205

  MBIS Dipoles: [e a0]
   Center  Symbol  Z        X           Y           Z
      1       O    8    0.000000   -0.000000   -0.001571
      2       H    1   -0.000000   -0.000000    0.020405

  MBIS Quadrupoles: [e a0^2]
   Center  Symbol  Z      XX        XY        XZ        YY        YZ        ZZ
      1       O    8   -3.6518    0.0000   -0.0000   -4.5076   -0.0000   -4.1547
      2       H    1   -0.1668    0.0000    0.0000   -0.1893   -0.0000   -0.1774

  MBIS Octupoles: [e a0^3]
   Center  Symbol  Z      XXX       XXY       XXZ       XYY       XYZ       XZZ       YYY       YYZ       YZZ       ZZZ
      1       O    8   -0.0000   -0.0000    0.0701   -0.0000    0.0000   -0.0000   -0.0000    0.0222   -0.0000   -0.0728
      2       H    1    0.0000   -0.0000    0.0001   -0.0000    0.0000   -0.0000   -0.0000    0.0040   -0.0000    0.0038

  MBIS Radial Moments:
   Center  Symbol  Z      [a0^2]      [a0^3]      [a0^4]
      1       O    8   12.314105   23.429545   53.245271
      2       H    1    0.533539    0.743532    1.244750

  MBIS Valence Widths: [a0]
   Center  Symbol  Z     Width
      1       O    8    0.389588
      2       H    1    0.280686

*** tstop() called on Mac.lan at Sun Aug 10 17:10:51 2025
Module time:
	user time   =       3.65 seconds =       0.06 minutes
	system time =       2.76 seconds =       0.05 minutes
	total time  =          1 seconds =       0.02 minutes
Total time:
	user time   =      12.53 seconds =       0.21 minutes
	system time =       4.97 seconds =       0.08 minutes
	total time  =          2 seconds =       0.03 minutes

    Psi4 stopped on: Sunday, 10 August 2025 05:10PM
    Psi4 wall time for execution: 0:00:01.71

*** Psi4 exiting successfully. Buy a developer a beer!
