                               Psi4 1.9.1 release

  ==> Input File <==

--------------------------------------------------------------------------
molecule {
0 2
O           0.000000           0.000000           0.000000
N           0.000000           0.000000           0.855956
}

set {
basis              cc-pvtz
reference          uks
maxiter            500
DAMPING_PERCENTAGE 1
E_CONVERGENCE      1.0E-8
D_CONVERGENCE      1.0E-8
DIIS_MAX_VECS      400
MBIS_MAXITER       8000
guess              read
}

E, wfn = energy('b3lyp', restart_file='last_wfn', return_wfn=True)
properties('b3lyp','MBIS_CHARGES', wfn=wfn)
wfn.to_file('last_wfn')
--------------------------------------------------------------------------

    Molecular point group: c2v
  Charge       = 0
  Multiplicity = 2
  Basis Set: CC-PVTZ
    Blend: CC-PVTZ
  Basis Set: (CC-PVTZ AUX)
    Blend: CC-PVTZ-JKFIT
  @DF-UKS Final Energy:  -129.58107636257557
    Total Energy =                       -129.5810763625755726
 Dipole X            :          0.0000000            0.0000000            0.0000000
 Dipole Y            :          0.0000000            0.0000000            0.0000000
 Dipole Z            :         -0.3592556           -0.0032455           -0.3625011
 Magnitude           :                                                    0.3625011
    Molecular point group: c2v

    Geometry (in Angstrom), charge = 0, multiplicity = 2:

       Center              X                  Y                   Z               Mass
    ------------   -----------------  -----------------  -----------------  -----------------
         O            0.000000000000     0.000000000000    -0.399560629307    15.994914619570
         N            0.000000000000     0.000000000000     0.456395370693    14.003074004430

  Charge       = 0
  Multiplicity = 2
  Basis Set: CC-PVTZ
    Blend: CC-PVTZ
  Basis Set: (CC-PVTZ AUX)
    Blend: CC-PVTZ-JKFIT

    Orbital Energies [Eh]
    ---------------------

    Alpha Occupied:

       1A1   -19.252254     2A1   -14.386441     3A1    -1.501512
       1B1    -0.695244     1B2    -0.677978     4A1    -0.659148
       5A1    -0.499779     2B1    -0.061775

    Alpha Virtual:

       2B2     0.041642     6A1     0.237562     3B1     0.371887
       3B2     0.373806     7A1     0.419140     8A1     0.527067
       4B1     0.606582     4B2     0.620941     1A2     0.893498
       9A1     0.895025    10A1     1.107387    11A1     1.214275
       5B1     1.302221     5B2     1.306172     2A2     1.617280
      12A1     1.618860    13A1     1.974426     6B1     2.073589
       6B2     2.077824    14A1     2.579053     7B1     2.713191
       7B2     2.721705    15A1     3.219914     8B1     3.713230
       8B2     3.713502    16A1     3.721017     9B1     3.863021
       9B2     3.870145     3A2     3.905014    17A1     3.906607
      10B1     4.198304    10B2     4.200857     4A2     4.367618
      18A1     4.371242    19A1     4.676356    11B2     4.888086
      11B1     4.889046    12B1     5.158339    12B2     5.158469
      20A1     5.823556     5A2     6.120745    21A1     6.122664
       6A2     6.310605    22A1     6.311925    13B2     6.572590
      13B1     6.572610    23A1     6.870242    24A1     7.547412
      14B1     8.207725    14B2     8.209413    25A1     9.402469
      26A1    22.314019

    Beta Occupied:

       1A1   -19.241658     2A1   -14.374973     3A1    -1.487009
       1B2    -0.669037     1B1    -0.632237     4A1    -0.631000
       5A1    -0.466600

    Beta Virtual:

       2B2     0.054722     2B1     0.090532     6A1     0.242464
       3B2     0.377654     3B1     0.397939     7A1     0.429392
       8A1     0.539131     4B2     0.627302     4B1     0.647982
       9A1     0.915883     1A2     0.916131    10A1     1.127454
      11A1     1.223206     5B2     1.309861     5B1     1.338545
       2A2     1.646001    12A1     1.646262    13A1     1.985859
       6B2     2.082294     6B1     2.105044    14A1     2.598816
       7B2     2.730771     7B1     2.765373    15A1     3.236153
      16A1     3.736103     8B2     3.745480     8B1     3.745525
       9B2     3.877926     9B1     3.909595     3A2     3.923925
      17A1     3.924582    10B2     4.204908    10B1     4.238008
      18A1     4.414970     4A2     4.415556    19A1     4.692318
      11B2     4.891990    11B1     4.921231    12B2     5.186027
      12B1     5.186042    20A1     5.838421     5A2     6.159222
      21A1     6.159497     6A2     6.334328    22A1     6.334617
      13B2     6.576329    13B1     6.605236    23A1     6.879923
      24A1     7.560011    14B2     8.214975    14B1     8.247223
      25A1     9.422444    26A1    22.328717

    Final Occupation by Irrep:
             A1    A2    B1    B2
    DOCC [     5,    0,    1,    1 ]
    SOCC [     0,    0,    1,    0 ]
    NA   [     5,    0,    2,    1 ]
    NB   [     5,    0,    1,    1 ]

  @DF-UKS Final Energy:  -129.58107636096014

   => Energetics <=

    Nuclear Repulsion Energy =             34.6208494332886332
    One-Electron Energy =                -243.9975156843571824
    Two-Electron Energy =                  92.5702767875208536
    DFT Exchange-Correlation Energy =     -12.7746868974124492
    Empirical Dispersion Energy =           0.0000000000000000
    VV10 Nonlocal Energy =                  0.0000000000000000
    Total Energy =                       -129.5810763609601395

  UHF NO Occupations:
  HONO-2 :    1 B1 1.9997206
  HONO-1 :    5 A1 1.9997003
  HONO-0 :    2 B1 1.0000000
  LUNO+0 :    6 A1 0.0002997
  LUNO+1 :    3 B1 0.0002794
  LUNO+2 :    7 A1 0.0000887
  LUNO+3 :    2 B2 0.0000159

Computation Completed

Properties will be evaluated at   0.000000,   0.000000,   0.000000 [a0]

Properties computed using the B3LYP density matrix

 Multipole Moments:

 ------------------------------------------------------------------------------------
     Multipole            Electronic (a.u.)      Nuclear  (a.u.)        Total (a.u.)
 ------------------------------------------------------------------------------------

 L = 1.  Multiply by 2.5417464519 to convert [e a0] to [Debye]
 Dipole X            :          0.0000000            0.0000000            0.0000000
 Dipole Y            :          0.0000000            0.0000000            0.0000000
 Dipole Z            :         -0.3592556           -0.0032455           -0.3625011
 Magnitude           :                                                    0.3625011

 L = 2.  Multiply by 1.3450342976 to convert [e a0^2] to [Debye ang]
 Quadrupole XX       :         -7.6307101            0.0000000           -7.6307101
 Quadrupole XY       :          0.0000000            0.0000000            0.0000000
 Quadrupole XZ       :          0.0000000            0.0000000            0.0000000
 Quadrupole YY       :         -6.5468407            0.0000000           -6.5468407
 Quadrupole YZ       :          0.0000000            0.0000000            0.0000000
 Quadrupole ZZ       :        -18.2893879            9.7678148           -8.5215732
 Traceless XX        :          3.1916028           -3.2559383           -0.0643354
 Traceless YY        :          4.2754722           -3.2559383            1.0195339
 Traceless ZZ        :         -7.4670750            6.5118765           -0.9551985

 ------------------------------------------------------------------------------------
  ==> Computing MBIS Charges <==

  Electron Count from Grid (Expected Number): 15.00000 (15.00000)
  Difference: -0.00000

  MBIS Charges: (a.u.)
   Center  Symbol  Z      Pop.       Charge
      1       O    8    7.851268    0.148732
      2       N    7    7.148731   -0.148731

  MBIS Dipoles: [e a0]
   Center  Symbol  Z        X           Y           Z
      1       O    8    0.000000    0.000000    0.113215
      2       N    7    0.000000   -0.000000   -0.235140

  MBIS Quadrupoles: [e a0^2]
   Center  Symbol  Z      XX        XY        XZ        YY        YZ        ZZ
      1       O    8   -3.2317   -0.0000   -0.0000   -2.9403    0.0000   -3.4837
      2       N    7   -4.3990   -0.0000   -0.0000   -3.6066    0.0000   -4.4355

  MBIS Octupoles: [e a0^3]
   Center  Symbol  Z      XXX       XXY       XXZ       XYY       XYZ       XZZ       YYY       YYZ       YZZ       ZZZ
      1       O    8    0.0000   -0.0000    0.2243    0.0000    0.0000   -0.0000   -0.0000    0.1520   -0.0000    0.2881
      2       N    7    0.0000    0.0000   -0.7571    0.0000   -0.0000    0.0000   -0.0000   -0.2623    0.0000   -0.3404

  MBIS Radial Moments:
   Center  Symbol  Z      [a0^2]      [a0^3]      [a0^4]
      1       O    8    9.655581   16.992550   36.143923
      2       N    7   12.441139   26.604600   68.303081

  MBIS Valence Widths: [a0]
   Center  Symbol  Z     Width
      1       O    8    0.359159
      2       N    7    0.434118

*** tstop() called on Mac.lan at Sun Aug 10 17:20:11 2025
Module time:
	user time   =       4.06 seconds =       0.07 minutes
	system time =       2.19 seconds =       0.04 minutes
	total time  =          0 seconds =       0.00 minutes
Total time:
	user time   =      16.46 seconds =       0.27 minutes
	system time =       4.47 seconds =       0.07 minutes
	total time  =          2 seconds =       0.03 minutes

    Psi4 stopped on: Sunday, 10 August 2025 05:20PM
    Psi4 wall time for execution: 0:00:02.02

*** Psi4 exiting successfully. Buy a developer a beer!
