                               Psi4 1.9.1 release

  ==> Input File <==

--------------------------------------------------------------------------
molecule {
0 2
C           0.000000           0.000000           0.000000
H           0.000000           0.000000           1.004450
}

set {
basis              cc-pvtz
reference          uks
maxiter            500
DAMPING_PERCENTAGE 1
E_CONVERGENCE      1.0E-8
D_CONVERGENCE      1.0E-8
DIIS_MAX_VECS      400
MBIS_MAXITER       8000
guess              read
}

E, wfn = energy('b3lyp', restart_file='last_wfn', return_wfn=True)
properties('b3lyp','MBIS_CHARGES', wfn=wfn)
wfn.to_file('last_wfn')
--------------------------------------------------------------------------

    Molecular point group: c2v
  Charge       = 0
  Multiplicity = 2
  Basis Set: CC-PVTZ
    Blend: CC-PVTZ
  Basis Set: (CC-PVTZ AUX)
    Blend: CC-PVTZ-JKFIT
  @DF-UKS Final Energy:   -38.48720331522189
    Total Energy =                        -38.4872033152218904
 Dipole X            :          0.0000000            0.0000000            0.0000000
 Dipole Y            :          0.0000000            0.0000000            0.0000000
 Dipole Z            :         -0.2073706            0.8686844            0.6613138
 Magnitude           :                                                    0.6613138
    Molecular point group: c2v

    Geometry (in Angstrom), charge = 0, multiplicity = 2:

       Center              X                  Y                   Z               Mass
    ------------   -----------------  -----------------  -----------------  -----------------
         C            0.000000000000     0.000000000000    -0.077823145000    12.000000000000
         H            0.000000000000     0.000000000000     0.926626855000     1.007825032230

  Charge       = 0
  Multiplicity = 2
  Basis Set: CC-PVTZ
    Blend: CC-PVTZ
  Basis Set: (CC-PVTZ AUX)
    Blend: CC-PVTZ-JKFIT

    Orbital Energies [Eh]
    ---------------------

    Alpha Occupied:

       1A1   -10.267232     2A1    -0.680031     3A1    -0.324311
       1B1    -0.258841

    Alpha Virtual:

       1B2    -0.147382     4A1     0.068462     5A1     0.285509
       2B1     0.292511     2B2     0.311982     6A1     0.354151
       7A1     0.482250     3B1     0.584392     3B2     0.588385
       1A2     0.654931     8A1     0.660721     9A1     0.972853
       4B1     1.053010     4B2     1.053192    10A1     1.544478
       5B1     1.939807     5B2     1.965472    11A1     1.966680
      12A1     2.161704     2A2     2.525324    13A1     2.528963
       6B1     2.642781     6B2     2.644802     7B1     2.647246
       7B2     2.655204     3A2     2.903041    14A1     2.912761
      15A1     2.968784     8B1     3.047225     8B2     3.052177
      16A1     3.425480     4A2     3.675762    17A1     3.677948
       9B2     3.856500     9B1     3.858846    18A1     4.834896
      10B1     4.969675    10B2     4.971893    19A1     5.063527
      20A1     9.411680

    Beta Occupied:

       1A1   -10.252707     2A1    -0.639633     3A1    -0.301863

    Beta Virtual:

       1B2    -0.131330     1B1    -0.085665     4A1     0.072270
       5A1     0.292526     2B2     0.319349     2B1     0.347523
       6A1     0.368031     7A1     0.495343     3B2     0.590471
       3B1     0.615340     8A1     0.698326     1A2     0.698460
       9A1     0.985001     4B2     1.054594     4B1     1.073904
      10A1     1.559769    11A1     1.976799     5B2     1.977356
       5B1     2.021401    12A1     2.181793     2A2     2.556216
      13A1     2.556650     6B2     2.657694     6B1     2.690402
       7B2     2.701217     7B1     2.703640    14A1     2.960912
       3A2     2.978494    15A1     3.005172     8B2     3.055984
       8B1     3.092162    16A1     3.438013     4A2     3.690987
      17A1     3.691633     9B2     3.854024     9B1     3.866721
      18A1     4.843102    10B2     4.973537    10B1     4.999754
      19A1     5.070939    20A1     9.427224

    Final Occupation by Irrep:
             A1    A2    B1    B2
    DOCC [     3,    0,    0,    0 ]
    SOCC [     0,    0,    1,    0 ]
    NA   [     3,    0,    1,    0 ]
    NB   [     3,    0,    0,    0 ]

  @DF-UKS Final Energy:   -38.48720331492441

   => Energetics <=

    Nuclear Repulsion Energy =              3.1609968281348002
    One-Electron Energy =                 -57.2618258354012539
    Two-Electron Energy =                  20.1984291707445323
    DFT Exchange-Correlation Energy =      -4.5848034784024847
    Empirical Dispersion Energy =           0.0000000000000000
    VV10 Nonlocal Energy =                  0.0000000000000000
    Total Energy =                        -38.4872033149244075

  UHF NO Occupations:
  HONO-2 :    2 A1 1.9998755
  HONO-1 :    3 A1 1.9987207
  HONO-0 :    1 B1 1.0000000
  LUNO+0 :    4 A1 0.0012793
  LUNO+1 :    5 A1 0.0001245
  LUNO+2 :    6 A1 0.0000007
  LUNO+3 :    7 A1 0.0000000

Computation Completed

Properties will be evaluated at   0.000000,   0.000000,   0.000000 [a0]

Properties computed using the B3LYP density matrix

 Multipole Moments:

 ------------------------------------------------------------------------------------
     Multipole            Electronic (a.u.)      Nuclear  (a.u.)        Total (a.u.)
 ------------------------------------------------------------------------------------

 L = 1.  Multiply by 2.5417464519 to convert [e a0] to [Debye]
 Dipole X            :          0.0000000            0.0000000            0.0000000
 Dipole Y            :          0.0000000            0.0000000            0.0000000
 Dipole Z            :         -0.2073706            0.8686844            0.6613138
 Magnitude           :                                                    0.6613138

 L = 2.  Multiply by 1.3450342976 to convert [e a0^2] to [Debye ang]
 Quadrupole XX       :         -5.6181987            0.0000000           -5.6181987
 Quadrupole XY       :          0.0000000            0.0000000            0.0000000
 Quadrupole XZ       :          0.0000000            0.0000000            0.0000000
 Quadrupole YY       :         -4.1173878            0.0000000           -4.1173878
 Quadrupole YZ       :          0.0000000            0.0000000            0.0000000
 Quadrupole ZZ       :         -8.7008128            3.1960172           -5.5047956
 Traceless XX        :          0.5272677           -1.0653391           -0.5380713
 Traceless YY        :          2.0280786           -1.0653391            0.9627396
 Traceless ZZ        :         -2.5553464            2.1306782           -0.4246682

 ------------------------------------------------------------------------------------
  ==> Computing MBIS Charges <==

  Electron Count from Grid (Expected Number):  7.00000 ( 7.00000)
  Difference: -0.00000

  MBIS Charges: (a.u.)
   Center  Symbol  Z      Pop.       Charge
      1       C    6    6.119329   -0.119329
      2       H    1    0.880671    0.119329

  MBIS Dipoles: [e a0]
   Center  Symbol  Z        X           Y           Z
      1       C    6   -0.000000    0.000000    0.392722
      2       H    1   -0.000000   -0.000000    0.042088

  MBIS Quadrupoles: [e a0^2]
   Center  Symbol  Z      XX        XY        XZ        YY        YZ        ZZ
      1       C    6   -5.1618    0.0000   -0.0000   -3.7228   -0.0000   -5.4522
      2       H    1   -0.4564    0.0000    0.0000   -0.3946    0.0000   -0.4478

  MBIS Octupoles: [e a0^3]
   Center  Symbol  Z      XXX       XXY       XXZ       XYY       XYZ       XZZ       YYY       YYZ       YZZ       ZZZ
      1       C    6    0.0000    0.0000    0.5761   -0.0000   -0.0000   -0.0000    0.0000    0.6381    0.0000    1.1753
      2       H    1    0.0000   -0.0000    0.0068    0.0000    0.0000   -0.0000    0.0000   -0.0193   -0.0000   -0.0155

  MBIS Radial Moments:
   Center  Symbol  Z      [a0^2]      [a0^3]      [a0^4]
      1       C    6   14.336798   35.789834   106.625802
      2       H    1    1.298784    2.248280    4.687106

  MBIS Valence Widths: [a0]
   Center  Symbol  Z     Width
      1       C    6    0.522397
      2       H    1    0.353890

*** tstop() called on Mac.lan at Sun Aug 10 17:08:31 2025
Module time:
	user time   =       3.30 seconds =       0.06 minutes
	system time =       1.61 seconds =       0.03 minutes
	total time  =          1 seconds =       0.02 minutes
Total time:
	user time   =      12.07 seconds =       0.20 minutes
	system time =       3.56 seconds =       0.06 minutes
	total time  =          2 seconds =       0.03 minutes

    Psi4 stopped on: Sunday, 10 August 2025 05:08PM
    Psi4 wall time for execution: 0:00:01.53

*** Psi4 exiting successfully. Buy a developer a beer!
