                               Psi4 1.9.1 release

  ==> Input File <==

--------------------------------------------------------------------------
molecule {
0 2
C           0.000000           0.000000           0.000000
H           0.000000           0.000000           1.582353
}

set {
basis              cc-pvtz
reference          uks
maxiter            500
DAMPING_PERCENTAGE 1
E_CONVERGENCE      1.0E-8
D_CONVERGENCE      1.0E-8
DIIS_MAX_VECS      400
MBIS_MAXITER       8000
guess              read
}

E, wfn = energy('b3lyp', restart_file='last_wfn', return_wfn=True)
properties('b3lyp','MBIS_CHARGES', wfn=wfn)
wfn.to_file('last_wfn')
--------------------------------------------------------------------------

    Molecular point group: c2v
  Charge       = 0
  Multiplicity = 2
  Basis Set: CC-PVTZ
    Blend: CC-PVTZ
  Basis Set: (CC-PVTZ AUX)
    Blend: CC-PVTZ-JKFIT
  @DF-UKS Final Energy:   -38.44765205276749
    Total Energy =                        -38.4476520527675021
 Dipole X            :          0.0000000            0.0000000            0.0000000
 Dipole Y            :          0.0000000            0.0000000            0.0000000
 Dipole Z            :         -1.1753994            1.3684756            0.1930762
 Magnitude           :                                                    0.1930762
    Molecular point group: c2v

    Geometry (in Angstrom), charge = 0, multiplicity = 2:

       Center              X                  Y                   Z               Mass
    ------------   -----------------  -----------------  -----------------  -----------------
         C            0.000000000000     0.000000000000    -0.122598125303    12.000000000000
         H            0.000000000000     0.000000000000     1.459754874697     1.007825032230

  Charge       = 0
  Multiplicity = 2
  Basis Set: CC-PVTZ
    Blend: CC-PVTZ
  Basis Set: (CC-PVTZ AUX)
    Blend: CC-PVTZ-JKFIT

    Orbital Energies [Eh]
    ---------------------

    Alpha Occupied:

       1A1   -10.326920     2A1    -0.596428     3A1    -0.311173
       1B1    -0.271650

    Alpha Virtual:

       1B2    -0.156989     4A1    -0.026373     5A1     0.257315
       2B1     0.283005     2B2     0.302209     6A1     0.312211
       7A1     0.445509     3B1     0.537740     3B2     0.539718
       1A2     0.650667     8A1     0.656381     9A1     0.815901
       4B1     0.904484     4B2     0.906049    10A1     1.186843
       5B1     1.886817     5B2     1.913814    11A1     2.062386
      12A1     2.432732     6B1     2.539470     6B2     2.542462
      13A1     2.582930     2A2     2.603695    14A1     2.608710
       7B1     2.629965     7B2     2.632595     3A2     2.871901
      15A1     2.884478     8B1     2.946119     8B2     2.963580
      16A1     3.198933     4A2     3.264806    17A1     3.265543
      18A1     3.590372     9B2     3.593944     9B1     3.595477
      10B2     3.875738    10B1     3.876663    19A1     4.068745
      20A1     5.202445

    Beta Occupied:

       1A1   -10.310963     2A1    -0.542979     3A1    -0.300454

    Beta Virtual:

       1B2    -0.140285     1B1    -0.092590     4A1    -0.016820
       5A1     0.255604     2B2     0.309482     6A1     0.321366
       2B1     0.338324     7A1     0.467768     3B2     0.539185
       3B1     0.555792     8A1     0.693481     1A2     0.694273
       9A1     0.827203     4B2     0.906550     4B1     0.926083
      10A1     1.190969     5B2     1.924640     5B1     1.968363
      11A1     2.074148    12A1     2.427322     6B2     2.546548
       6B1     2.577262    13A1     2.598281     2A2     2.641188
      14A1     2.646494     7B2     2.688844     7B1     2.689502
      15A1     2.948422     3A2     2.949253     8B2     2.972041
       8B1     3.015933    16A1     3.221746     4A2     3.262622
      17A1     3.263545     9B2     3.585061     9B1     3.592184
      18A1     3.612443    10B2     3.868999    10B1     3.880275
      19A1     4.063024    20A1     5.211893

    Final Occupation by Irrep:
             A1    A2    B1    B2
    DOCC [     3,    0,    0,    0 ]
    SOCC [     0,    0,    1,    0 ]
    NA   [     3,    0,    1,    0 ]
    NB   [     3,    0,    0,    0 ]

  @DF-UKS Final Energy:   -38.44765205370307

   => Energetics <=

    Nuclear Repulsion Energy =              2.0065454825945919
    One-Electron Energy =                 -55.0274467738861475
    Two-Electron Energy =                  19.0300594259393172
    DFT Exchange-Correlation Energy =      -4.4568101883508389
    Empirical Dispersion Energy =           0.0000000000000000
    VV10 Nonlocal Energy =                  0.0000000000000000
    Total Energy =                        -38.4476520537030737

  UHF NO Occupations:
  HONO-2 :    2 A1 1.9990664
  HONO-1 :    3 A1 1.9978600
  HONO-0 :    1 B1 1.0000000
  LUNO+0 :    4 A1 0.0021400
  LUNO+1 :    5 A1 0.0009336
  LUNO+2 :    6 A1 0.0000007
  LUNO+3 :    7 A1 0.0000000

Computation Completed

Properties will be evaluated at   0.000000,   0.000000,   0.000000 [a0]

Properties computed using the B3LYP density matrix

 Multipole Moments:

 ------------------------------------------------------------------------------------
     Multipole            Electronic (a.u.)      Nuclear  (a.u.)        Total (a.u.)
 ------------------------------------------------------------------------------------

 L = 1.  Multiply by 2.5417464519 to convert [e a0] to [Debye]
 Dipole X            :          0.0000000            0.0000000            0.0000000
 Dipole Y            :          0.0000000            0.0000000            0.0000000
 Dipole Z            :         -1.1753994            1.3684756            0.1930762
 Magnitude           :                                                    0.1930762

 L = 2.  Multiply by 1.3450342976 to convert [e a0^2] to [Debye ang]
 Quadrupole XX       :         -5.9881557            0.0000000           -5.9881557
 Quadrupole XY       :          0.0000000            0.0000000            0.0000000
 Quadrupole XZ       :          0.0000000            0.0000000            0.0000000
 Quadrupole YY       :         -4.5409278            0.0000000           -4.5409278
 Quadrupole YZ       :          0.0000000            0.0000000            0.0000000
 Quadrupole ZZ       :        -13.7869674            7.9315710           -5.8553964
 Traceless XX        :          2.1171946           -2.6438570           -0.5266624
 Traceless YY        :          3.5644225           -2.6438570            0.9205655
 Traceless ZZ        :         -5.6816171            5.2877140           -0.3939031

 ------------------------------------------------------------------------------------
  ==> Computing MBIS Charges <==

  Electron Count from Grid (Expected Number):  7.00000 ( 7.00000)
  Difference: -0.00000

  MBIS Charges: (a.u.)
   Center  Symbol  Z      Pop.       Charge
      1       C    6    5.977848    0.022152
      2       H    1    1.022152   -0.022152

  MBIS Dipoles: [e a0]
   Center  Symbol  Z        X           Y           Z
      1       C    6    0.000000   -0.000000    0.166744
      2       H    1   -0.000000    0.000000    0.092571

  MBIS Quadrupoles: [e a0^2]
   Center  Symbol  Z      XX        XY        XZ        YY        YZ        ZZ
      1       C    6   -5.0292    0.0000    0.0000   -3.6531    0.0000   -5.1971
      2       H    1   -0.9590   -0.0000   -0.0000   -0.8878    0.0000   -0.9244

  MBIS Octupoles: [e a0^3]
   Center  Symbol  Z      XXX       XXY       XXZ       XYY       XYZ       XZZ       YYY       YYZ       YZZ       ZZZ
      1       C    6    0.0000   -0.0000    0.1719   -0.0000   -0.0000   -0.0000   -0.0000    0.1125   -0.0000    0.1593
      2       H    1   -0.0000    0.0000    0.0354   -0.0000   -0.0000   -0.0000    0.0000   -0.0484    0.0000    0.0911

  MBIS Radial Moments:
   Center  Symbol  Z      [a0^2]      [a0^3]      [a0^4]
      1       C    6   13.879416   34.447272   102.067710
      2       H    1    2.771148    6.507908   18.251494

  MBIS Valence Widths: [a0]
   Center  Symbol  Z     Width
      1       C    6    0.523858
      2       H    1    0.478094

*** tstop() called on Mac.lan at Sun Aug 10 17:09:46 2025
Module time:
	user time   =       3.43 seconds =       0.06 minutes
	system time =       1.73 seconds =       0.03 minutes
	total time  =          0 seconds =       0.00 minutes
Total time:
	user time   =      13.73 seconds =       0.23 minutes
	system time =       3.88 seconds =       0.06 minutes
	total time  =          1 seconds =       0.02 minutes

    Psi4 stopped on: Sunday, 10 August 2025 05:09PM
    Psi4 wall time for execution: 0:00:01.72

*** Psi4 exiting successfully. Buy a developer a beer!
