                               Psi4 1.9.1 release

  ==> Input File <==

--------------------------------------------------------------------------
molecule {
0 2
C           0.000000           0.000000           0.000000
H           0.000000           0.000000           0.694860
}

set {
basis              cc-pvtz
reference          uks
maxiter            500
DAMPING_PERCENTAGE 1
E_CONVERGENCE      1.0E-8
D_CONVERGENCE      1.0E-8
DIIS_MAX_VECS      400
MBIS_MAXITER       8000
guess              read
}

E, wfn = energy('b3lyp', restart_file='last_wfn', return_wfn=True)
properties('b3lyp','MBIS_CHARGES', wfn=wfn)
wfn.to_file('last_wfn')
--------------------------------------------------------------------------

    Molecular point group: c2v
  Charge       = 0
  Multiplicity = 2
  Basis Set: CC-PVTZ
    Blend: CC-PVTZ
  Basis Set: (CC-PVTZ AUX)
    Blend: CC-PVTZ-JKFIT
  @DF-UKS Final Energy:   -38.25062376471683
    Total Energy =                        -38.2506237647168348
 Dipole X            :          0.0000000            0.0000000            0.0000000
 Dipole Y            :          0.0000000            0.0000000            0.0000000
 Dipole Z            :          0.1875433            0.6009399            0.7884832
 Magnitude           :                                                    0.7884832
    Molecular point group: c2v

    Geometry (in Angstrom), charge = 0, multiplicity = 2:

       Center              X                  Y                   Z               Mass
    ------------   -----------------  -----------------  -----------------  -----------------
         C            0.000000000000     0.000000000000    -0.053836617587    12.000000000000
         H            0.000000000000     0.000000000000     0.641023382413     1.007825032230

  Charge       = 0
  Multiplicity = 2
  Basis Set: CC-PVTZ
    Blend: CC-PVTZ
  Basis Set: (CC-PVTZ AUX)
    Blend: CC-PVTZ-JKFIT

    Orbital Energies [Eh]
    ---------------------

    Alpha Occupied:

       1A1   -10.241066     2A1    -0.779635     3A1    -0.326350
       1B1    -0.263311

    Alpha Virtual:

       1B2    -0.151371     4A1     0.074203     5A1     0.280381
       2B1     0.289269     2B2     0.307868     6A1     0.401994
       3B1     0.633624     3B2     0.638756     7A1     0.650035
       1A2     0.653974     8A1     0.662197     9A1     1.024418
       4B1     1.105492     4B2     1.105841    10A1     1.848098
       5B1     1.895469     5B2     1.918636    11A1     2.040838
      12A1     2.296378     2A2     2.599112    13A1     2.603199
       6B1     2.642844     6B2     2.644997     7B1     2.729702
       7B2     2.737925     3A2     2.867060    14A1     2.877148
       8B1     3.044658     8B2     3.045959    15A1     3.079120
      16A1     3.947517     4A2     4.109775    17A1     4.113400
       9B2     4.141471     9B1     4.141989    18A1     5.729615
      10B1     5.835398    10B2     5.838617    19A1     6.731534
      20A1    14.704422

    Beta Occupied:

       1A1   -10.226510     2A1    -0.741144     3A1    -0.299746

    Beta Virtual:

       1B2    -0.135012     1B1    -0.088894     4A1     0.076838
       5A1     0.286685     2B2     0.314959     2B1     0.342269
       6A1     0.417329     3B2     0.641870     7A1     0.664988
       3B1     0.670476     1A2     0.697384     8A1     0.699067
       9A1     1.033543     4B2     1.106572     4B1     1.124347
      10A1     1.869636     5B2     1.930417     5B1     1.973342
      11A1     2.050411    12A1     2.331063     2A2     2.635516
      13A1     2.635904     6B2     2.700051     6B1     2.700553
       7B2     2.742169     7B1     2.780435    14A1     2.933742
       3A2     2.935512     8B2     3.049954     8B1     3.082951
      15A1     3.098971    16A1     3.958692     4A2     4.135644
      17A1     4.136924     9B2     4.142581     9B1     4.166484
      18A1     5.744417    10B2     5.841046    10B1     5.872325
      19A1     6.737722    20A1    14.720281

    Final Occupation by Irrep:
             A1    A2    B1    B2
    DOCC [     3,    0,    0,    0 ]
    SOCC [     0,    0,    1,    0 ]
    NA   [     3,    0,    1,    0 ]
    NB   [     3,    0,    0,    0 ]

  @DF-UKS Final Energy:   -38.25062376535492

   => Energetics <=

    Nuclear Repulsion Energy =              4.5693567970814266
    One-Electron Energy =                 -59.3579403542026682
    Two-Electron Energy =                  21.2557789196360751
    DFT Exchange-Correlation Energy =      -4.7178191278697446
    Empirical Dispersion Energy =           0.0000000000000000
    VV10 Nonlocal Energy =                  0.0000000000000000
    Total Energy =                        -38.2506237653549164

  UHF NO Occupations:
  HONO-2 :    2 A1 1.9999132
  HONO-1 :    3 A1 1.9988269
  HONO-0 :    1 B1 1.0000000
  LUNO+0 :    4 A1 0.0011731
  LUNO+1 :    5 A1 0.0000868
  LUNO+2 :    6 A1 0.0000007
  LUNO+3 :    7 A1 0.0000000

Computation Completed

Properties will be evaluated at   0.000000,   0.000000,   0.000000 [a0]

Properties computed using the B3LYP density matrix

 Multipole Moments:

 ------------------------------------------------------------------------------------
     Multipole            Electronic (a.u.)      Nuclear  (a.u.)        Total (a.u.)
 ------------------------------------------------------------------------------------

 L = 1.  Multiply by 2.5417464519 to convert [e a0] to [Debye]
 Dipole X            :          0.0000000            0.0000000            0.0000000
 Dipole Y            :          0.0000000            0.0000000            0.0000000
 Dipole Z            :          0.1875433            0.6009399            0.7884832
 Magnitude           :                                                    0.7884832

 L = 2.  Multiply by 1.3450342976 to convert [e a0^2] to [Debye ang]
 Quadrupole XX       :         -5.3721203            0.0000000           -5.3721203
 Quadrupole XY       :          0.0000000            0.0000000            0.0000000
 Quadrupole XZ       :          0.0000000            0.0000000            0.0000000
 Quadrupole YY       :         -3.8973601            0.0000000           -3.8973601
 Quadrupole YZ       :          0.0000000            0.0000000            0.0000000
 Quadrupole ZZ       :         -6.8984014            1.5294916           -5.3689098
 Traceless XX        :          0.0171736           -0.5098305           -0.4926569
 Traceless YY        :          1.4919339           -0.5098305            0.9821033
 Traceless ZZ        :         -1.5091075            1.0196611           -0.4894464

 ------------------------------------------------------------------------------------
  ==> Computing MBIS Charges <==

  Electron Count from Grid (Expected Number):  7.00000 ( 7.00000)
  Difference:  0.00000

  MBIS Charges: (a.u.)
   Center  Symbol  Z      Pop.       Charge
      1       C    6    6.139177   -0.139177
      2       H    1    0.860823    0.139177

  MBIS Dipoles: [e a0]
   Center  Symbol  Z        X           Y           Z
      1       C    6   -0.000000    0.000000    0.582625
      2       H    1   -0.000000    0.000000    0.023106

  MBIS Quadrupoles: [e a0^2]
   Center  Symbol  Z      XX        XY        XZ        YY        YZ        ZZ
      1       C    6   -5.0975    0.0000    0.0000   -3.6639    0.0000   -5.2547
      2       H    1   -0.2747    0.0000   -0.0000   -0.2335   -0.0000   -0.2544

  MBIS Octupoles: [e a0^3]
   Center  Symbol  Z      XXX       XXY       XXZ       XYY       XYZ       XZZ       YYY       YYZ       YZZ       ZZZ
      1       C    6   -0.0000    0.0000    0.9530   -0.0000   -0.0000   -0.0000    0.0000    1.0762   -0.0000    2.5682
      2       H    1    0.0000   -0.0000    0.0082    0.0000    0.0000   -0.0000    0.0000   -0.0017    0.0000    0.0067

  MBIS Radial Moments:
   Center  Symbol  Z      [a0^2]      [a0^3]      [a0^4]
      1       C    6   14.016043   34.500353   100.898003
      2       H    1    0.762564    1.009809    1.603819

  MBIS Valence Widths: [a0]
   Center  Symbol  Z     Width
      1       C    6    0.515014
      2       H    1    0.275775

*** tstop() called on Mac.lan at Sun Aug 10 17:09:00 2025
Module time:
	user time   =       3.20 seconds =       0.05 minutes
	system time =       2.32 seconds =       0.04 minutes
	total time  =          1 seconds =       0.02 minutes
Total time:
	user time   =      12.10 seconds =       0.20 minutes
	system time =       4.73 seconds =       0.08 minutes
	total time  =          2 seconds =       0.03 minutes

    Psi4 stopped on: Sunday, 10 August 2025 05:09PM
    Psi4 wall time for execution: 0:00:01.66

*** Psi4 exiting successfully. Buy a developer a beer!
