                               Psi4 1.9.1 release

  ==> Input File <==

--------------------------------------------------------------------------
molecule {
0 2
N           0.000000           0.000000           0.000000
C           0.000000           0.000000           1.252958
}

set {
basis              cc-pvtz
reference          uks
maxiter            500
DAMPING_PERCENTAGE 1
E_CONVERGENCE      1.0E-8
D_CONVERGENCE      1.0E-8
DIIS_MAX_VECS      400
MBIS_MAXITER       8000
guess              read
}

E, wfn = energy('b3lyp', restart_file='last_wfn', return_wfn=True)
properties('b3lyp','MBIS_CHARGES', wfn=wfn)
wfn.to_file('last_wfn')
--------------------------------------------------------------------------

    Molecular point group: c2v
  Charge       = 0
  Multiplicity = 2
  Basis Set: CC-PVTZ
    Blend: CC-PVTZ
  Basis Set: (CC-PVTZ AUX)
    Blend: CC-PVTZ-JKFIT
  @DF-UKS Final Energy:   -92.73228440301779
    Total Energy =                        -92.7322844030177862
 Dipole X            :          0.0000000            0.0000000            0.0000000
 Dipole Y            :          0.0000000            0.0000000            0.0000000
 Dipole Z            :          0.4642493            0.0016794            0.4659287
 Magnitude           :                                                    0.4659287
    Molecular point group: c2v

    Geometry (in Angstrom), charge = 0, multiplicity = 2:

       Center              X                  Y                   Z               Mass
    ------------   -----------------  -----------------  -----------------  -----------------
         N            0.000000000000     0.000000000000    -0.578219944205    14.003074004430
         C            0.000000000000     0.000000000000     0.674738055795    12.000000000000

  Charge       = 0
  Multiplicity = 2
  Basis Set: CC-PVTZ
    Blend: CC-PVTZ
  Basis Set: (CC-PVTZ AUX)
    Blend: CC-PVTZ-JKFIT

    Orbital Energies [Eh]
    ---------------------

    Alpha Occupied:

       1A1   -14.412198     2A1   -10.319609     3A1    -0.935626
       4A1    -0.522405     5A1    -0.413052     1B2    -0.378071
       1B1    -0.378071

    Alpha Virtual:

       2B1    -0.048345     2B2    -0.048345     6A1     0.163226
       7A1     0.274736     3B1     0.284789     3B2     0.284789
       8A1     0.431602     9A1     0.496773     4B1     0.508955
       4B2     0.508955     1A2     0.621242    10A1     0.621242
       5B1     0.789121     5B2     0.789121    11A1     0.870579
       2A2     1.134385    12A1     1.134385    13A1     1.177841
       6B1     1.469110     6B2     1.469110    14A1     1.700735
       7B2     1.968112     7B1     1.968112    15A1     2.148937
       8B2     2.621142     8B1     2.621142    16A1     2.669624
       3A2     2.669624     9B1     2.724037     9B2     2.724037
      17A1     2.773956    10B1     2.890188    10B2     2.890188
       4A2     2.906884    18A1     2.906885    19A1     3.028070
      11B2     3.340768    11B1     3.340768    20A1     3.650309
      12B1     3.899569    12B2     3.899569     5A2     4.276749
      21A1     4.276749     6A2     4.498283    22A1     4.498284
      13B2     4.717516    13B1     4.717516    23A1     4.803428
      24A1     5.266940    14B1     5.300916    14B2     5.300916
      25A1     5.506308    26A1    10.968255

    Beta Occupied:

       1A1   -14.406548     2A1   -10.305048     3A1    -0.911327
       4A1    -0.454829     1B2    -0.370145     1B1    -0.370145

    Beta Virtual:

       5A1    -0.255227     2B1    -0.027933     2B2    -0.027933
       6A1     0.170928     3B1     0.293401     3B2     0.293401
       7A1     0.311882     8A1     0.441463     4B1     0.510115
       4B2     0.510115     9A1     0.548087     1A2     0.630466
      10A1     0.630466     5B1     0.818555     5B2     0.818555
      11A1     0.883326     2A2     1.136009    12A1     1.136009
      13A1     1.213182     6B1     1.488357     6B2     1.488357
      14A1     1.727969     7B2     1.981729     7B1     1.981729
      15A1     2.198891     8B2     2.635860     8B1     2.635860
       3A2     2.688924    16A1     2.688925     9B1     2.747776
       9B2     2.747776    17A1     2.817894    10B1     2.931225
      10B2     2.931225     4A2     2.939819    18A1     2.939819
      19A1     3.099014    11B2     3.379046    11B1     3.379046
      20A1     3.689739    12B1     3.894425    12B2     3.894425
       5A2     4.282092    21A1     4.282093     6A2     4.501263
      22A1     4.501264    13B2     4.745572    13B1     4.745572
      23A1     4.845799    24A1     5.305618    14B1     5.327830
      14B2     5.327830    25A1     5.517532    26A1    10.987067

    Final Occupation by Irrep:
             A1    A2    B1    B2
    DOCC [     4,    0,    1,    1 ]
    SOCC [     1,    0,    0,    0 ]
    NA   [     5,    0,    1,    1 ]
    NB   [     4,    0,    1,    1 ]

  @DF-UKS Final Energy:   -92.73228440298959

   => Energetics <=

    Nuclear Repulsion Energy =             17.7383781803859328
    One-Electron Energy =                -159.7295096046768208
    Two-Electron Energy =                  59.0244397531056464
    DFT Exchange-Correlation Energy =      -9.7655927318043414
    Empirical Dispersion Energy =           0.0000000000000000
    VV10 Nonlocal Energy =                  0.0000000000000000
    Total Energy =                        -92.7322844029896061

  UHF NO Occupations:
  HONO-2 :    1 B2 1.9985950
  HONO-1 :    4 A1 1.9984424
  HONO-0 :    5 A1 1.0000000
  LUNO+0 :    6 A1 0.0015576
  LUNO+1 :    2 B2 0.0014050
  LUNO+2 :    2 B1 0.0014050
  LUNO+3 :    7 A1 0.0001277

Computation Completed

Properties will be evaluated at   0.000000,   0.000000,   0.000000 [a0]

Properties computed using the B3LYP density matrix

 Multipole Moments:

 ------------------------------------------------------------------------------------
     Multipole            Electronic (a.u.)      Nuclear  (a.u.)        Total (a.u.)
 ------------------------------------------------------------------------------------

 L = 1.  Multiply by 2.5417464519 to convert [e a0] to [Debye]
 Dipole X            :          0.0000000            0.0000000            0.0000000
 Dipole Y            :          0.0000000            0.0000000            0.0000000
 Dipole Z            :          0.4642493            0.0016794            0.4659287
 Magnitude           :                                                    0.4659287

 L = 2.  Multiply by 1.3450342976 to convert [e a0^2] to [Debye ang]
 Quadrupole XX       :         -8.3610885            0.0000000           -8.3610885
 Quadrupole XY       :          0.0000000            0.0000000            0.0000000
 Quadrupole XZ       :          0.0000000            0.0000000            0.0000000
 Quadrupole YY       :         -8.3610885            0.0000000           -8.3610885
 Quadrupole YZ       :          0.0000000            0.0000000            0.0000000
 Quadrupole ZZ       :        -25.8192988           18.1124294           -7.7068695
 Traceless XX        :          5.8194034           -6.0374765           -0.2180730
 Traceless YY        :          5.8194034           -6.0374765           -0.2180730
 Traceless ZZ        :        -11.6388069           12.0749529            0.4361460

 ------------------------------------------------------------------------------------
  ==> Computing MBIS Charges <==

  Electron Count from Grid (Expected Number): 13.00000 (13.00000)
  Difference:  0.00000

  MBIS Charges: (a.u.)
   Center  Symbol  Z      Pop.       Charge
      1       N    7    7.219171   -0.219171
      2       C    6    5.780830    0.219170

  MBIS Dipoles: [e a0]
   Center  Symbol  Z        X           Y           Z
      1       N    7   -0.000000   -0.000000   -0.204891
      2       C    6   -0.000000    0.000000    0.151881

  MBIS Quadrupoles: [e a0^2]
   Center  Symbol  Z      XX        XY        XZ        YY        YZ        ZZ
      1       N    7   -4.3250    0.0000   -0.0000   -4.3250   -0.0000   -4.4813
      2       C    6   -4.0361    0.0000   -0.0000   -4.0361    0.0000   -4.1552

  MBIS Octupoles: [e a0^3]
   Center  Symbol  Z      XXX       XXY       XXZ       XYY       XYZ       XZZ       YYY       YYZ       YZZ       ZZZ
      1       N    7    0.0000    0.0000   -0.2834    0.0000    0.0000    0.0000   -0.0000   -0.2834    0.0000   -0.6175
      2       C    6   -0.0000    0.0000    0.2142   -0.0000   -0.0000    0.0000    0.0000    0.2142    0.0000    0.4094

  MBIS Radial Moments:
   Center  Symbol  Z      [a0^2]      [a0^3]      [a0^4]
      1       N    7   13.131376   28.076916   71.622364
      2       C    6   12.227398   29.048864   82.196660

  MBIS Valence Widths: [a0]
   Center  Symbol  Z     Width
      1       N    7    0.446593
      2       C    6    0.502050

*** tstop() called on Mac.lan at Sun Aug 10 17:13:53 2025
Module time:
	user time   =       3.94 seconds =       0.07 minutes
	system time =       2.18 seconds =       0.04 minutes
	total time  =          0 seconds =       0.00 minutes
Total time:
	user time   =      21.65 seconds =       0.36 minutes
	system time =       4.34 seconds =       0.07 minutes
	total time  =          2 seconds =       0.03 minutes

    Psi4 stopped on: Sunday, 10 August 2025 05:13PM
    Psi4 wall time for execution: 0:00:02.52

*** Psi4 exiting successfully. Buy a developer a beer!
