                               Psi4 1.9.1 release

  ==> Input File <==

--------------------------------------------------------------------------
molecule {
0 3
O           0.000000           0.000000           0.000000
O           0.000000           0.000000           0.856384
}

set {
basis              cc-pvtz
reference          uks
maxiter            500
DAMPING_PERCENTAGE 1
E_CONVERGENCE      1.0E-8
D_CONVERGENCE      1.0E-8
DIIS_MAX_VECS      400
MBIS_MAXITER       8000
guess              read
}

E, wfn = energy('b3lyp', restart_file='last_wfn', return_wfn=True)
properties('b3lyp','MBIS_CHARGES', wfn=wfn)
wfn.to_file('last_wfn')
--------------------------------------------------------------------------

    Molecular point group: d2h
  Charge       = 0
  Multiplicity = 3
  Basis Set: CC-PVTZ
    Blend: CC-PVTZ
  Basis Set: (CC-PVTZ AUX)
    Blend: CC-PVTZ-JKFIT
  @DF-UKS Final Energy:  -149.93037400640819
    Total Energy =                       -149.9303740064081865
 Dipole X            :          0.0000000            0.0000000            0.0000000
 Dipole Y            :          0.0000000            0.0000000            0.0000000
 Dipole Z            :          0.0000000            0.0000000            0.0000000
 Magnitude           :                                                    0.0000000
    Molecular point group: d2h

    Geometry (in Angstrom), charge = 0, multiplicity = 3:

       Center              X                  Y                   Z               Mass
    ------------   -----------------  -----------------  -----------------  -----------------
         O            0.000000000000     0.000000000000    -0.428192000000    15.994914619570
         O            0.000000000000     0.000000000000     0.428192000000    15.994914619570

  Charge       = 0
  Multiplicity = 3
  Basis Set: CC-PVTZ
    Blend: CC-PVTZ
  Basis Set: (CC-PVTZ AUX)
    Blend: CC-PVTZ-JKFIT

    Orbital Energies [Eh]
    ---------------------

    Alpha Occupied:

       1Ag   -19.249786     1B1u  -19.243613     2Ag    -1.679454
       1B2u   -0.760727     1B3u   -0.760727     2B1u   -0.732042
       3Ag    -0.622438     1B3g   -0.132771     1B2g   -0.132771

    Alpha Virtual:

       3B1u    0.342775     2B2u    0.434225     2B3u    0.434225
       4Ag     0.490192     2B3g    0.641189     2B2g    0.641189
       5Ag     0.651634     4B1u    1.057375     1B1g    1.117502
       6Ag     1.117503     5B1u    1.263045     3B2u    1.564427
       3B3u    1.564427     6B1u    1.759881     1Au     1.759881
       7Ag     2.115127     3B3g    2.260510     3B2g    2.260510
       7B1u    2.772772     4B2u    3.362427     4B3u    3.362427
       8Ag     3.887402     4B3g    4.013243     4B2g    4.013243
       8B1u    4.382739     2B1g    4.587730     9Ag     4.587730
       5B2u    4.588452     5B3u    4.588452     6B2u    4.965346
       6B3u    4.965346     5B3g    5.423512     5B2g    5.423512
      10Ag     5.511601     6B3g    5.855247     6B2g    5.855247
       3B1g    5.985138    11Ag     5.985139     2Au     6.140857
       9B1u    6.140858    12Ag     6.446017    10B1u    6.463890
      11B1u    6.773908     3Au     6.773908     7B2u    6.919623
       7B3u    6.919623    12B1u    8.158131     7B3g    9.128291
       7B2g    9.128291    13Ag     9.665926    13B1u   26.905705

    Beta Occupied:

       1Ag   -19.222180     1B1u  -19.215698     2Ag    -1.642903
       1B2u   -0.672724     1B3u   -0.672724     2B1u   -0.647122
       3Ag    -0.570581

    Beta Virtual:

       1B3g    0.055431     1B2g    0.055431     3B1u    0.356476
       2B2u    0.459420     2B3u    0.459420     4Ag     0.498019
       5Ag     0.677940     2B3g    0.694078     2B2g    0.694078
       4B1u    1.093341     6Ag     1.155955     1B1g    1.155955
       5B1u    1.308469     3B2u    1.606191     3B3u    1.606191
       1Au     1.827843     6B1u    1.827843     7Ag     2.134847
       3B3g    2.303046     3B2g    2.303046     7B1u    2.804186
       4B2u    3.426915     4B3u    3.426915     8Ag     3.911851
       4B3g    4.083085     4B2g    4.083085     8B1u    4.431656
       9Ag     4.620242     2B1g    4.620242     5B2u    4.645742
       5B3u    4.645742     6B2u    5.006043     6B3u    5.006043
       5B3g    5.498289     5B2g    5.498289    10Ag     5.540476
       6B3g    5.900907     6B2g    5.900907     3B1g    6.082768
      11Ag     6.082769     2Au     6.239288     9B1u    6.239289
      12Ag     6.486253    10B1u    6.501040    11B1u    6.830236
       3Au     6.830236     7B2u    6.963651     7B3u    6.963651
      12B1u    8.190834     7B3g    9.177728     7B2g    9.177728
      13Ag     9.706981    13B1u   26.941752

    Final Occupation by Irrep:
             Ag   B1g   B2g   B3g    Au   B1u   B2u   B3u
    DOCC [     3,    0,    0,    0,    0,    2,    1,    1 ]
    SOCC [     0,    0,    1,    1,    0,    0,    0,    0 ]
    NA   [     3,    0,    1,    1,    0,    2,    1,    1 ]
    NB   [     3,    0,    0,    0,    0,    2,    1,    1 ]

  @DF-UKS Final Energy:  -149.93037400651622

   => Energetics <=

    Nuclear Repulsion Energy =             39.5469105948733315
    One-Electron Energy =                -282.8290896263877130
    Two-Electron Energy =                 107.5324959797845850
    DFT Exchange-Correlation Energy =     -14.1806909547864226
    Empirical Dispersion Energy =           0.0000000000000000
    VV10 Nonlocal Energy =                  0.0000000000000000
    Total Energy =                       -149.9303740065162174

  UHF NO Occupations:
  HONO-2 :    2B1u 1.9995050
  HONO-1 :    1B3g 1.0000000
  HONO-0 :    1B2g 1.0000000
  LUNO+0 :    3B1u 0.0004950
  LUNO+1 :    2B3u 0.0004940
  LUNO+2 :    2B2u 0.0004940
  LUNO+3 :    4 Ag 0.0001954

Computation Completed

Properties will be evaluated at   0.000000,   0.000000,   0.000000 [a0]

Properties computed using the B3LYP density matrix

 Multipole Moments:

 ------------------------------------------------------------------------------------
     Multipole            Electronic (a.u.)      Nuclear  (a.u.)        Total (a.u.)
 ------------------------------------------------------------------------------------

 L = 1.  Multiply by 2.5417464519 to convert [e a0] to [Debye]
 Dipole X            :          0.0000000            0.0000000            0.0000000
 Dipole Y            :          0.0000000            0.0000000            0.0000000
 Dipole Z            :          0.0000000            0.0000000            0.0000000
 Magnitude           :                                                    0.0000000

 L = 2.  Multiply by 1.3450342976 to convert [e a0^2] to [Debye ang]
 Quadrupole XX       :         -6.8425580            0.0000000           -6.8425580
 Quadrupole XY       :          0.0000000            0.0000000            0.0000000
 Quadrupole XZ       :          0.0000000            0.0000000            0.0000000
 Quadrupole YY       :         -6.8425580            0.0000000           -6.8425580
 Quadrupole YZ       :          0.0000000            0.0000000            0.0000000
 Quadrupole ZZ       :        -18.6346919           10.4759837           -8.1587082
 Traceless XX        :          3.9307113           -3.4919946            0.4387167
 Traceless YY        :          3.9307113           -3.4919946            0.4387167
 Traceless ZZ        :         -7.8614226            6.9839892           -0.8774334

 ------------------------------------------------------------------------------------
  ==> Computing MBIS Charges <==

  Electron Count from Grid (Expected Number): 16.00000 (16.00000)
  Difference: -0.00000

  MBIS Charges: (a.u.)
   Center  Symbol  Z      Pop.       Charge
      1       O    8    8.000000    0.000000
      2       O    8    8.000000    0.000000

  MBIS Dipoles: [e a0]
   Center  Symbol  Z        X           Y           Z
      1       O    8    0.000000    0.000000    0.224424
      2       O    8   -0.000000   -0.000000   -0.224424

  MBIS Quadrupoles: [e a0^2]
   Center  Symbol  Z      XX        XY        XZ        YY        YZ        ZZ
      1       O    8   -3.4213   -0.0000    0.0000   -3.4213   -0.0000   -3.7162
      2       O    8   -3.4213   -0.0000   -0.0000   -3.4213    0.0000   -3.7162

  MBIS Octupoles: [e a0^3]
   Center  Symbol  Z      XXX       XXY       XXZ       XYY       XYZ       XZZ       YYY       YYZ       YZZ       ZZZ
      1       O    8   -0.0000   -0.0000    0.3680   -0.0000    0.0000   -0.0000    0.0000    0.3680    0.0000    0.2288
      2       O    8   -0.0000   -0.0000   -0.3680    0.0000   -0.0000   -0.0000    0.0000   -0.3680    0.0000   -0.2288

  MBIS Radial Moments:
   Center  Symbol  Z      [a0^2]      [a0^3]      [a0^4]
      1       O    8   10.558720   19.396514   43.070730
      2       O    8   10.558720   19.396514   43.070730

  MBIS Valence Widths: [a0]
   Center  Symbol  Z     Width
      1       O    8    0.371092
      2       O    8    0.371092

*** tstop() called on Mac.lan at Sun Aug 10 17:01:16 2025
Module time:
	user time   =       4.39 seconds =       0.07 minutes
	system time =       2.45 seconds =       0.04 minutes
	total time  =          1 seconds =       0.02 minutes
Total time:
	user time   =      17.66 seconds =       0.29 minutes
	system time =       4.78 seconds =       0.08 minutes
	total time  =          3 seconds =       0.05 minutes

    Psi4 stopped on: Sunday, 10 August 2025 05:01PM
    Psi4 wall time for execution: 0:00:02.19

*** Psi4 exiting successfully. Buy a developer a beer!
