                               Psi4 1.9.1 release

  ==> Input File <==

--------------------------------------------------------------------------
molecule {
0 3
O           0.000000           0.000000           0.000000
O           0.000000           0.000000           0.812088
}

set {
basis              cc-pvtz
reference          uks
maxiter            500
DAMPING_PERCENTAGE 1
E_CONVERGENCE      1.0E-8
D_CONVERGENCE      1.0E-8
DIIS_MAX_VECS      400
MBIS_MAXITER       8000
guess              read
}

E, wfn = energy('b3lyp', restart_file='last_wfn', return_wfn=True)
properties('b3lyp','MBIS_CHARGES', wfn=wfn)
wfn.to_file('last_wfn')
--------------------------------------------------------------------------

    Molecular point group: d2h
  Charge       = 0
  Multiplicity = 3
  Basis Set: CC-PVTZ
    Blend: CC-PVTZ
  Basis Set: (CC-PVTZ AUX)
    Blend: CC-PVTZ-JKFIT
  @DF-UKS Final Energy:  -149.72421946608640
    Total Energy =                       -149.7242194660863959
 Dipole X            :          0.0000000            0.0000000            0.0000000
 Dipole Y            :          0.0000000            0.0000000            0.0000000
 Dipole Z            :          0.0000000            0.0000000            0.0000000
 Magnitude           :                                                    0.0000000
    Molecular point group: d2h

    Geometry (in Angstrom), charge = 0, multiplicity = 3:

       Center              X                  Y                   Z               Mass
    ------------   -----------------  -----------------  -----------------  -----------------
         O            0.000000000000     0.000000000000    -0.406044000000    15.994914619570
         O            0.000000000000     0.000000000000     0.406044000000    15.994914619570

  Charge       = 0
  Multiplicity = 3
  Basis Set: CC-PVTZ
    Blend: CC-PVTZ
  Basis Set: (CC-PVTZ AUX)
    Blend: CC-PVTZ-JKFIT

    Orbital Energies [Eh]
    ---------------------

    Alpha Occupied:

       1Ag   -19.254330     1B1u  -19.243960     2Ag    -1.736443
       1B2u   -0.803244     1B3u   -0.803244     2B1u   -0.720796
       3Ag    -0.637936     1B3g   -0.100117     1B2g   -0.100117

    Alpha Virtual:

       3B1u    0.342245     2B2u    0.420351     2B3u    0.420351
       4Ag     0.481523     2B2g    0.648167     2B3g    0.648167
       5Ag     0.653044     4B1u    1.101968     1B1g    1.107777
       6Ag     1.107777     5B1u    1.361972     3B2u    1.605953
       3B3u    1.605953     6B1u    1.780213     1Au     1.780213
       7Ag     2.075129     3B2g    2.254267     3B3g    2.254267
       7B1u    2.963142     4B2u    3.324022     4B3u    3.324022
       8Ag     3.956647     4B2g    4.063385     4B3g    4.063385
       8B1u    4.410236     5B2u    4.547790     5B3u    4.547790
       2B1g    4.617051     9Ag     4.617051     6B3u    5.058227
       6B2u    5.058227     5B2g    5.477091     5B3g    5.477091
      10Ag     5.566215     6B2g    5.781508     6B3g    5.781508
      11Ag     5.986815     3B1g    5.986815     9B1u    6.099399
       2Au     6.099399    12Ag     6.315228    10B1u    6.611555
      11B1u    6.969355     3Au     6.969355     7B3u    6.990746
       7B2u    6.990746    12B1u    8.436940     7B2g    9.442053
       7B3g    9.442053    13Ag    10.235998    13B1u   29.370482

    Beta Occupied:

       1Ag   -19.227839     1B1u  -19.217122     2Ag    -1.702949
       1B2u   -0.718527     1B3u   -0.718527     2B1u   -0.636628
       3Ag    -0.584830

    Beta Virtual:

       1B3g    0.084341     1B2g    0.084341     3B1u    0.356036
       2B2u    0.444899     2B3u    0.444899     4Ag     0.489933
       5Ag     0.679658     2B2g    0.703483     2B3g    0.703483
       4B1u    1.137163     6Ag     1.145930     1B1g    1.145930
       5B1u    1.408325     3B2u    1.649304     3B3u    1.649304
       1Au     1.849240     6B1u    1.849241     7Ag     2.093119
       3B2g    2.297793     3B3g    2.297793     7B1u    2.995607
       4B2u    3.383769     4B3u    3.383769     8Ag     3.981314
       4B2g    4.131563     4B3g    4.131563     8B1u    4.461260
       5B2u    4.602077     5B3u    4.602077     9Ag     4.649157
       2B1g    4.649157     6B3u    5.101376     6B2u    5.101376
       5B2g    5.551344     5B3g    5.551344    10Ag     5.595704
       6B2g    5.826291     6B3g    5.826291    11Ag     6.080324
       3B1g    6.080325     9B1u    6.193470     2Au     6.193471
      12Ag     6.351164    10B1u    6.647941    11B1u    7.027802
       3Au     7.027802     7B3u    7.032941     7B2u    7.032941
      12B1u    8.468220     7B2g    9.492584     7B3g    9.492584
      13Ag    10.278861    13B1u   29.404211

    Final Occupation by Irrep:
             Ag   B1g   B2g   B3g    Au   B1u   B2u   B3u
    DOCC [     3,    0,    0,    0,    0,    2,    1,    1 ]
    SOCC [     0,    0,    1,    1,    0,    0,    0,    0 ]
    NA   [     3,    0,    1,    1,    0,    2,    1,    1 ]
    NB   [     3,    0,    0,    0,    0,    2,    1,    1 ]

  @DF-UKS Final Energy:  -149.72421946619852

   => Energetics <=

    Nuclear Repulsion Energy =             41.7040289757760192
    One-Electron Energy =                -286.4285167943047554
    Two-Electron Energy =                 109.2602781081826038
    DFT Exchange-Correlation Energy =     -14.2600097558523959
    Empirical Dispersion Energy =           0.0000000000000000
    VV10 Nonlocal Energy =                  0.0000000000000000
    Total Energy =                       -149.7242194661985195

  UHF NO Occupations:
  HONO-2 :    2B1u 1.9995585
  HONO-1 :    1B2g 1.0000000
  HONO-0 :    1B3g 1.0000000
  LUNO+0 :    3B1u 0.0004415
  LUNO+1 :    2B3u 0.0003876
  LUNO+2 :    2B2u 0.0003876
  LUNO+3 :    4 Ag 0.0001719

Computation Completed

Properties will be evaluated at   0.000000,   0.000000,   0.000000 [a0]

Properties computed using the B3LYP density matrix

 Multipole Moments:

 ------------------------------------------------------------------------------------
     Multipole            Electronic (a.u.)      Nuclear  (a.u.)        Total (a.u.)
 ------------------------------------------------------------------------------------

 L = 1.  Multiply by 2.5417464519 to convert [e a0] to [Debye]
 Dipole X            :          0.0000000            0.0000000            0.0000000
 Dipole Y            :          0.0000000            0.0000000            0.0000000
 Dipole Z            :          0.0000000            0.0000000            0.0000000
 Magnitude           :                                                    0.0000000

 L = 2.  Multiply by 1.3450342976 to convert [e a0^2] to [Debye ang]
 Quadrupole XX       :         -6.7879364            0.0000000           -6.7879364
 Quadrupole XY       :          0.0000000            0.0000000            0.0000000
 Quadrupole XZ       :          0.0000000            0.0000000            0.0000000
 Quadrupole YY       :         -6.7879364            0.0000000           -6.7879364
 Quadrupole YZ       :          0.0000000            0.0000000            0.0000000
 Quadrupole ZZ       :        -17.6299455            9.4202822           -8.2096633
 Traceless XX        :          3.6140031           -3.1400941            0.4739090
 Traceless YY        :          3.6140031           -3.1400941            0.4739090
 Traceless ZZ        :         -7.2280061            6.2801881           -0.9478180

 ------------------------------------------------------------------------------------
  ==> Computing MBIS Charges <==

  Electron Count from Grid (Expected Number): 16.00000 (16.00000)
  Difference: -0.00000

  MBIS Charges: (a.u.)
   Center  Symbol  Z      Pop.       Charge
      1       O    8    8.000000    0.000000
      2       O    8    8.000000    0.000000

  MBIS Dipoles: [e a0]
   Center  Symbol  Z        X           Y           Z
      1       O    8   -0.000000   -0.000000    0.237450
      2       O    8    0.000000    0.000000   -0.237450

  MBIS Quadrupoles: [e a0^2]
   Center  Symbol  Z      XX        XY        XZ        YY        YZ        ZZ
      1       O    8   -3.3940    0.0000    0.0000   -3.3940   -0.0000   -3.7404
      2       O    8   -3.3940   -0.0000    0.0000   -3.3940    0.0000   -3.7404

  MBIS Octupoles: [e a0^3]
   Center  Symbol  Z      XXX       XXY       XXZ       XYY       XYZ       XZZ       YYY       YYZ       YZZ       ZZZ
      1       O    8   -0.0000   -0.0000    0.4113   -0.0000   -0.0000   -0.0000    0.0000    0.4113    0.0000    0.2779
      2       O    8   -0.0000   -0.0000   -0.4113   -0.0000    0.0000   -0.0000    0.0000   -0.4113    0.0000   -0.2779

  MBIS Radial Moments:
   Center  Symbol  Z      [a0^2]      [a0^3]      [a0^4]
      1       O    8   10.528372   19.405664   43.333096
      2       O    8   10.528372   19.405664   43.333096

  MBIS Valence Widths: [a0]
   Center  Symbol  Z     Width
      1       O    8    0.370034
      2       O    8    0.370034

*** tstop() called on Mac.lan at Sun Aug 10 17:01:22 2025
Module time:
	user time   =      12.30 seconds =       0.20 minutes
	system time =       2.63 seconds =       0.04 minutes
	total time  =          2 seconds =       0.03 minutes
Total time:
	user time   =      27.07 seconds =       0.45 minutes
	system time =       4.79 seconds =       0.08 minutes
	total time  =          3 seconds =       0.05 minutes

    Psi4 stopped on: Sunday, 10 August 2025 05:01PM
    Psi4 wall time for execution: 0:00:03.18

*** Psi4 exiting successfully. Buy a developer a beer!
