                               Psi4 1.9.1 release

  ==> Input File <==

--------------------------------------------------------------------------
molecule {
0 2
O           0.000000           0.000000           0.000000
H           0.000000           0.000000           1.014385
}

set {
basis              cc-pvtz
reference          uks
maxiter            500
DAMPING_PERCENTAGE 1
E_CONVERGENCE      1.0E-8
D_CONVERGENCE      1.0E-8
DIIS_MAX_VECS      400
MBIS_MAXITER       8000
guess              SAP
}

E, wfn = energy('b3lyp', return_wfn=True)
properties('b3lyp','MBIS_CHARGES', wfn=wfn)
wfn.to_file('last_wfn')
--------------------------------------------------------------------------

    Molecular point group: c2v
  Charge       = 0
  Multiplicity = 2
  Basis Set: CC-PVTZ
    Blend: CC-PVTZ
  Basis Set: (CC-PVTZ AUX)
    Blend: CC-PVTZ-JKFIT
  @DF-UKS Final Energy:   -75.76286999965329
    Total Energy =                        -75.7628699996532902
 Dipole X            :          0.0000000            0.0000000            0.0000000
 Dipole Y            :          0.0000000            0.0000000            0.0000000
 Dipole Z            :         -0.2235546            0.8942989            0.6707443
 Magnitude           :                                                    0.6707443
    Molecular point group: c2v

    Geometry (in Angstrom), charge = 0, multiplicity = 2:

       Center              X                  Y                   Z               Mass
    ------------   -----------------  -----------------  -----------------  -----------------
         O            0.000000000000     0.000000000000    -0.060126933439    15.994914619570
         H            0.000000000000     0.000000000000     0.954258066561     1.007825032230

  Charge       = 0
  Multiplicity = 2
  Basis Set: CC-PVTZ
    Blend: CC-PVTZ
  Basis Set: (CC-PVTZ AUX)
    Blend: CC-PVTZ-JKFIT

    Orbital Energies [Eh]
    ---------------------

    Alpha Occupied:

       1A1   -19.199235     2A1    -1.007365     3A1    -0.471272
       1B1    -0.415232     1B2    -0.342335

    Alpha Virtual:

       4A1     0.020497     5A1     0.346022     6A1     0.521460
       2B1     0.525100     2B2     0.560149     3B1     0.684779
       3B2     0.700336     7A1     0.884168     8A1     1.203271
       1A2     1.421085     9A1     1.421555     4B1     1.708682
       4B2     1.747076    10A1     1.913224    11A1     2.391146
       2A2     3.172782    12A1     3.172929     5B1     3.289387
       5B2     3.326301     6B1     3.604745    13A1     3.624399
       6B2     3.630735     7B1     3.981329     7B2     4.016105
      14A1     4.191530    15A1     4.682814     8B1     5.070629
       8B2     5.070885     3A2     5.295204    16A1     5.295971
      17A1     6.136625     4A2     6.137244     9B1     6.160262
       9B2     6.214598    18A1     6.262791    10B1     6.498808
      10B2     6.547356    19A1     6.907125    20A1     9.773859

    Beta Occupied:

       1A1   -19.173771     2A1    -0.935904     3A1    -0.446552
       1B2    -0.316725

    Beta Virtual:

       1B1    -0.168050     4A1     0.027562     5A1     0.351334
       6A1     0.529802     2B2     0.570144     2B1     0.596384
       3B2     0.699395     3B1     0.699957     7A1     0.914115
       8A1     1.213132     1A2     1.473212     9A1     1.479175
       4B2     1.753212     4B1     1.758944    10A1     1.926964
      11A1     2.396473     2A2     3.176754    12A1     3.177344
       5B2     3.332475     5B1     3.346587    13A1     3.628637
       6B2     3.632957     6B1     3.642215     7B2     4.022510
       7B1     4.029685    14A1     4.211175    15A1     4.711982
       8B2     5.140768     8B1     5.143759     3A2     5.340700
      16A1     5.345750     9B2     6.227190     4A2     6.229278
      17A1     6.243663     9B1     6.244375    18A1     6.287863
      10B2     6.555685    10B1     6.564344    19A1     6.937371
      20A1     9.809212

    Final Occupation by Irrep:
             A1    A2    B1    B2
    DOCC [     3,    0,    0,    1 ]
    SOCC [     0,    0,    1,    0 ]
    NA   [     3,    0,    1,    1 ]
    NB   [     3,    0,    0,    1 ]

  @DF-UKS Final Energy:   -75.76286999965329

   => Energetics <=

    Nuclear Repulsion Energy =              4.1733835628089926
    One-Electron Energy =                -112.4052774411130144
    Two-Electron Energy =                  39.6462875360764144
    DFT Exchange-Correlation Energy =      -7.1772636574256827
    Empirical Dispersion Energy =           0.0000000000000000
    VV10 Nonlocal Energy =                  0.0000000000000000
    Total Energy =                        -75.7628699996532902

  UHF NO Occupations:
  HONO-2 :    2 A1 1.9996883
  HONO-1 :    3 A1 1.9992867
  HONO-0 :    1 B1 1.0000000
  LUNO+0 :    4 A1 0.0007133
  LUNO+1 :    5 A1 0.0003117
  LUNO+2 :    2 B2 0.0001572
  LUNO+3 :    6 A1 0.0000006

Computation Completed

Properties will be evaluated at   0.000000,   0.000000,   0.000000 [a0]

Properties computed using the B3LYP density matrix

 Multipole Moments:

 ------------------------------------------------------------------------------------
     Multipole            Electronic (a.u.)      Nuclear  (a.u.)        Total (a.u.)
 ------------------------------------------------------------------------------------

 L = 1.  Multiply by 2.5417464519 to convert [e a0] to [Debye]
 Dipole X            :          0.0000000            0.0000000            0.0000000
 Dipole Y            :          0.0000000            0.0000000            0.0000000
 Dipole Z            :         -0.2235546            0.8942989            0.6707443
 Magnitude           :                                                    0.6707443

 L = 2.  Multiply by 1.3450342976 to convert [e a0^2] to [Debye ang]
 Quadrupole XX       :         -4.0379924            0.0000000           -4.0379924
 Quadrupole XY       :          0.0000000            0.0000000            0.0000000
 Quadrupole XZ       :          0.0000000            0.0000000            0.0000000
 Quadrupole YY       :         -4.9338326            0.0000000           -4.9338326
 Quadrupole YZ       :          0.0000000            0.0000000            0.0000000
 Quadrupole ZZ       :         -6.5602431            3.3551241           -3.2051190
 Traceless XX        :          1.1393636           -1.1183747            0.0209889
 Traceless YY        :          0.2435234           -1.1183747           -0.8748513
 Traceless ZZ        :         -1.3828871            2.2367494            0.8538623

 ------------------------------------------------------------------------------------
  ==> Computing MBIS Charges <==

  Electron Count from Grid (Expected Number):  9.00000 ( 9.00000)
  Difference: -0.00000

  MBIS Charges: (a.u.)
   Center  Symbol  Z      Pop.       Charge
      1       O    8    8.370719   -0.370719
      2       H    1    0.629281    0.370719

  MBIS Dipoles: [e a0]
   Center  Symbol  Z        X           Y           Z
      1       O    8   -0.000000   -0.000000   -0.073649
      2       H    1   -0.000000   -0.000000    0.033759

  MBIS Quadrupoles: [e a0^2]
   Center  Symbol  Z      XX        XY        XZ        YY        YZ        ZZ
      1       O    8   -3.7145    0.0000    0.0000   -4.5713   -0.0000   -4.2142
      2       H    1   -0.3235   -0.0000    0.0000   -0.3626    0.0000   -0.3301

  MBIS Octupoles: [e a0^3]
   Center  Symbol  Z      XXX       XXY       XXZ       XYY       XYZ       XZZ       YYY       YYZ       YZZ       ZZZ
      1       O    8   -0.0000   -0.0000   -0.0676   -0.0000   -0.0000    0.0000   -0.0000   -0.0797   -0.0000   -0.3773
      2       H    1    0.0000   -0.0000   -0.0049    0.0000    0.0000    0.0000   -0.0000    0.0124    0.0000    0.0252

  MBIS Radial Moments:
   Center  Symbol  Z      [a0^2]      [a0^3]      [a0^4]
      1       O    8   12.499992   24.037342   55.253472
      2       H    1    1.016176    1.854679    4.046722

  MBIS Valence Widths: [a0]
   Center  Symbol  Z     Width
      1       O    8    0.395028
      2       H    1    0.367839

*** tstop() called on Mac.lan at Sun Aug 10 17:11:12 2025
Module time:
	user time   =      11.53 seconds =       0.19 minutes
	system time =       2.00 seconds =       0.03 minutes
	total time  =          1 seconds =       0.02 minutes
Total time:
	user time   =      21.11 seconds =       0.35 minutes
	system time =       4.49 seconds =       0.07 minutes
	total time  =          3 seconds =       0.05 minutes

    Psi4 stopped on: Sunday, 10 August 2025 05:11PM
    Psi4 wall time for execution: 0:00:02.46

*** Psi4 exiting successfully. Buy a developer a beer!
