                               Psi4 1.9.1 release

  ==> Input File <==

--------------------------------------------------------------------------
molecule {
0 2
O           0.000000           0.000000           0.000000
H           0.000000           0.000000           1.175494
}

set {
basis              cc-pvtz
reference          uks
maxiter            500
DAMPING_PERCENTAGE 1
E_CONVERGENCE      1.0E-8
D_CONVERGENCE      1.0E-8
DIIS_MAX_VECS      400
MBIS_MAXITER       8000
guess              read
}

E, wfn = energy('b3lyp', restart_file='last_wfn', return_wfn=True)
properties('b3lyp','MBIS_CHARGES', wfn=wfn)
wfn.to_file('last_wfn')
--------------------------------------------------------------------------

    Molecular point group: c2v
  Charge       = 0
  Multiplicity = 2
  Basis Set: CC-PVTZ
    Blend: CC-PVTZ
  Basis Set: (CC-PVTZ AUX)
    Blend: CC-PVTZ-JKFIT
  @DF-UKS Final Energy:   -75.74104580571024
    Total Energy =                        -75.7410458057102431
 Dipole X            :          0.0000000            0.0000000            0.0000000
 Dipole Y            :          0.0000000            0.0000000            0.0000000
 Dipole Z            :         -0.3451737            1.0363353            0.6911616
 Magnitude           :                                                    0.6911616
    Molecular point group: c2v

    Geometry (in Angstrom), charge = 0, multiplicity = 2:

       Center              X                  Y                   Z               Mass
    ------------   -----------------  -----------------  -----------------  -----------------
         O            0.000000000000     0.000000000000    -0.069676552291    15.994914619570
         H            0.000000000000     0.000000000000     1.105817447709     1.007825032230

  Charge       = 0
  Multiplicity = 2
  Basis Set: CC-PVTZ
    Blend: CC-PVTZ
  Basis Set: (CC-PVTZ AUX)
    Blend: CC-PVTZ-JKFIT

    Orbital Energies [Eh]
    ---------------------

    Alpha Occupied:

       1A1   -19.208513     2A1    -0.977497     3A1    -0.448098
       1B1    -0.410536     1B2    -0.337273

    Alpha Virtual:

       4A1    -0.019868     5A1     0.286004     2B1     0.513154
       6A1     0.544825     2B2     0.545034     3B1     0.676501
       3B2     0.692470     7A1     0.897983     8A1     1.087147
       1A2     1.428275     9A1     1.428979     4B1     1.627971
       4B2     1.665935    10A1     2.055497    11A1     2.297597
       2A2     3.151909    12A1     3.151993     5B1     3.229741
       5B2     3.261207    13A1     3.386983     6B1     3.618926
       6B2     3.640149     7B1     3.803190     7B2     3.840815
      14A1     3.896027    15A1     4.785662     8B1     5.075439
       8B2     5.075692     3A2     5.170539    16A1     5.172224
       9B1     5.728354     9B2     5.777129    17A1     6.064374
      18A1     6.130191     4A2     6.130761    10B1     6.413034
      10B2     6.468951    19A1     6.814199    20A1     8.533052

    Beta Occupied:

       1A1   -19.182369     2A1    -0.901789     3A1    -0.425759
       1B2    -0.311214

    Beta Virtual:

       1B1    -0.162104     4A1    -0.011409     5A1     0.286833
       2B2     0.552567     6A1     0.555398     2B1     0.574496
       3B2     0.691878     3B1     0.696320     7A1     0.928894
       8A1     1.094511     1A2     1.480546     9A1     1.486567
       4B2     1.672404     4B1     1.678974    10A1     2.075405
      11A1     2.290499     2A2     3.149042    12A1     3.149378
       5B2     3.264540     5B1     3.275886    13A1     3.394552
       6B2     3.636437     6B1     3.641576     7B2     3.849287
       7B1     3.863711    14A1     3.903568    15A1     4.810847
       8B2     5.145697     8B1     5.148699     3A2     5.217444
      16A1     5.222598     9B2     5.787472     9B1     5.796537
      17A1     6.090784     4A2     6.223651    18A1     6.238075
      10B2     6.482513    10B1     6.501256    19A1     6.854891
      20A1     8.569516

    Final Occupation by Irrep:
             A1    A2    B1    B2
    DOCC [     3,    0,    0,    1 ]
    SOCC [     0,    0,    1,    0 ]
    NA   [     3,    0,    1,    1 ]
    NB   [     3,    0,    0,    1 ]

  @DF-UKS Final Energy:   -75.74104580550078

   => Energetics <=

    Nuclear Repulsion Energy =              3.6013945501720981
    One-Electron Energy =                -111.3552866851756562
    Two-Electron Energy =                  39.1431014243424826
    DFT Exchange-Correlation Energy =      -7.1302550948396952
    Empirical Dispersion Energy =           0.0000000000000000
    VV10 Nonlocal Energy =                  0.0000000000000000
    Total Energy =                        -75.7410458055007609

  UHF NO Occupations:
  HONO-2 :    2 A1 1.9994942
  HONO-1 :    3 A1 1.9988087
  HONO-0 :    1 B1 1.0000000
  LUNO+0 :    4 A1 0.0011913
  LUNO+1 :    5 A1 0.0005058
  LUNO+2 :    2 B2 0.0001667
  LUNO+3 :    6 A1 0.0000006

Computation Completed

Properties will be evaluated at   0.000000,   0.000000,   0.000000 [a0]

Properties computed using the B3LYP density matrix

 Multipole Moments:

 ------------------------------------------------------------------------------------
     Multipole            Electronic (a.u.)      Nuclear  (a.u.)        Total (a.u.)
 ------------------------------------------------------------------------------------

 L = 1.  Multiply by 2.5417464519 to convert [e a0] to [Debye]
 Dipole X            :          0.0000000            0.0000000            0.0000000
 Dipole Y            :          0.0000000            0.0000000            0.0000000
 Dipole Z            :         -0.3451737            1.0363353            0.6911616
 Magnitude           :                                                    0.6911616

 L = 2.  Multiply by 1.3450342976 to convert [e a0^2] to [Debye ang]
 Quadrupole XX       :         -4.1492639            0.0000000           -4.1492639
 Quadrupole XY       :          0.0000000            0.0000000            0.0000000
 Quadrupole XZ       :          0.0000000            0.0000000            0.0000000
 Quadrupole YY       :         -5.0477583            0.0000000           -5.0477583
 Quadrupole YZ       :          0.0000000            0.0000000            0.0000000
 Quadrupole ZZ       :         -7.4546029            4.5055082           -2.9490947
 Traceless XX        :          1.4012778           -1.5018361           -0.1005583
 Traceless YY        :          0.5027834           -1.5018361           -0.9990527
 Traceless ZZ        :         -1.9040612            3.0036722            1.0996109

 ------------------------------------------------------------------------------------
  ==> Computing MBIS Charges <==

  Electron Count from Grid (Expected Number):  9.00000 ( 9.00000)
  Difference:  0.00000

  MBIS Charges: (a.u.)
   Center  Symbol  Z      Pop.       Charge
      1       O    8    8.336128   -0.336128
      2       H    1    0.663873    0.336127

  MBIS Dipoles: [e a0]
   Center  Symbol  Z        X           Y           Z
      1       O    8   -0.000000   -0.000000   -0.102192
      2       H    1    0.000000   -0.000000    0.046693

  MBIS Quadrupoles: [e a0^2]
   Center  Symbol  Z      XX        XY        XZ        YY        YZ        ZZ
      1       O    8   -3.7317   -0.0000    0.0000   -4.5886   -0.0000   -4.2218
      2       H    1   -0.4175   -0.0000    0.0000   -0.4592   -0.0000   -0.4114

  MBIS Octupoles: [e a0^3]
   Center  Symbol  Z      XXX       XXY       XXZ       XYY       XYZ       XZZ       YYY       YYZ       YZZ       ZZZ
      1       O    8   -0.0000   -0.0000   -0.1224    0.0000   -0.0000    0.0000   -0.0000   -0.1180   -0.0000   -0.5084
      2       H    1    0.0000   -0.0000   -0.0013    0.0000   -0.0000    0.0000   -0.0000    0.0265   -0.0000    0.0528

  MBIS Radial Moments:
   Center  Symbol  Z      [a0^2]      [a0^3]      [a0^4]
      1       O    8   12.542089   24.234297   55.963434
      2       H    1    1.288065    2.571022    6.138968

  MBIS Valence Widths: [a0]
   Center  Symbol  Z     Width
      1       O    8    0.396828
      2       H    1    0.403652

*** tstop() called on Mac.lan at Sun Aug 10 17:11:32 2025
Module time:
	user time   =       4.00 seconds =       0.07 minutes
	system time =       2.02 seconds =       0.03 minutes
	total time  =          1 seconds =       0.02 minutes
Total time:
	user time   =      13.92 seconds =       0.23 minutes
	system time =       4.31 seconds =       0.07 minutes
	total time  =          2 seconds =       0.03 minutes

    Psi4 stopped on: Sunday, 10 August 2025 05:11PM
    Psi4 wall time for execution: 0:00:01.78

*** Psi4 exiting successfully. Buy a developer a beer!
