                               Psi4 1.9.1 release

  ==> Input File <==

--------------------------------------------------------------------------
molecule {
0 2
N           0.000000           0.000000           0.000000
C           0.000000           0.000000           0.975314
}

set {
basis              cc-pvtz
reference          uks
maxiter            500
DAMPING_PERCENTAGE 1
E_CONVERGENCE      1.0E-8
D_CONVERGENCE      1.0E-8
DIIS_MAX_VECS      400
MBIS_MAXITER       8000
guess              read
}

E, wfn = energy('b3lyp', restart_file='last_wfn', return_wfn=True)
properties('b3lyp','MBIS_CHARGES', wfn=wfn)
wfn.to_file('last_wfn')
--------------------------------------------------------------------------

    Molecular point group: c2v
  Charge       = 0
  Multiplicity = 2
  Basis Set: CC-PVTZ
    Blend: CC-PVTZ
  Basis Set: (CC-PVTZ AUX)
    Blend: CC-PVTZ-JKFIT
  @DF-UKS Final Energy:   -92.63516244620428
    Total Energy =                        -92.6351624462042764
 Dipole X            :          0.0000000            0.0000000            0.0000000
 Dipole Y            :          0.0000000            0.0000000            0.0000000
 Dipole Z            :          0.6756016            0.0013073            0.6769089
 Magnitude           :                                                    0.6769089
    Molecular point group: c2v

    Geometry (in Angstrom), charge = 0, multiplicity = 2:

       Center              X                  Y                   Z               Mass
    ------------   -----------------  -----------------  -----------------  -----------------
         N            0.000000000000     0.000000000000    -0.450091708311    14.003074004430
         C            0.000000000000     0.000000000000     0.525222291689    12.000000000000

  Charge       = 0
  Multiplicity = 2
  Basis Set: CC-PVTZ
    Blend: CC-PVTZ
  Basis Set: (CC-PVTZ AUX)
    Blend: CC-PVTZ-JKFIT

    Orbital Energies [Eh]
    ---------------------

    Alpha Occupied:

       1A1   -14.322156     2A1   -10.241477     3A1    -1.022668
       4A1    -0.468526     1B2    -0.443194     1B1    -0.443194
       5A1    -0.399291

    Alpha Virtual:

       2B2     0.058435     2B1     0.058435     6A1     0.173474
       7A1     0.251953     3B2     0.275167     3B1     0.275167
       8A1     0.449918     4B2     0.529873     4B1     0.529873
       9A1     0.616083     1A2     0.616083    10A1     0.766119
       5B2     0.895911     5B1     0.895911    11A1     0.958725
      12A1     1.219559     2A2     1.219559    13A1     1.493782
       6B2     1.572044     6B1     1.572044     7B1     1.898756
       7B2     1.898756    14A1     1.933431    15A1     2.309602
       8B1     2.602899     8B2     2.602899    16A1     2.774385
      17A1     2.785828     3A2     2.785828     9B1     2.846656
       9B2     2.846656    18A1     2.921322     4A2     2.921322
      10B1     3.107022    10B2     3.107022    19A1     3.222245
      11B1     3.529299    11B2     3.529299    12B1     4.011861
      12B2     4.011861    20A1     4.396053    21A1     4.530132
       5A2     4.530133    22A1     4.820348     6A2     4.820348
      13B2     4.924394    13B1     4.924394    23A1     5.329624
      24A1     5.565945    14B1     6.050950    14B2     6.050950
      25A1     7.207463    26A1    15.574693

    Beta Occupied:

       1A1   -14.319442     2A1   -10.223218     3A1    -1.003137
       1B2    -0.432648     1B1    -0.432648     4A1    -0.398436

    Beta Virtual:

       5A1    -0.244892     2B2     0.081425     2B1     0.081425
       6A1     0.180410     3B2     0.287352     3B1     0.287352
       7A1     0.296561     8A1     0.461343     4B2     0.535119
       4B1     0.535119     9A1     0.628915     1A2     0.628915
      10A1     0.812853     5B2     0.925311     5B1     0.925311
      11A1     0.965601    12A1     1.222468     2A2     1.222468
      13A1     1.540345     6B2     1.582666     6B1     1.582666
       7B1     1.918680     7B2     1.918680    14A1     1.957617
      15A1     2.363990     8B1     2.622317     8B2     2.622317
      16A1     2.795023     3A2     2.795023    17A1     2.814079
       9B1     2.926317     9B2     2.926317    18A1     2.981337
       4A2     2.981337    10B1     3.115123    10B2     3.115123
      19A1     3.309459    11B1     3.562018    11B2     3.562018
      12B1     4.008719    12B2     4.008719    20A1     4.420908
      21A1     4.524518     5A2     4.524518    22A1     4.829952
       6A2     4.829952    13B2     4.936813    13B1     4.936813
      23A1     5.351697    24A1     5.596821    14B1     6.078664
      14B2     6.078664    25A1     7.220654    26A1    15.600950

    Final Occupation by Irrep:
             A1    A2    B1    B2
    DOCC [     4,    0,    1,    1 ]
    SOCC [     1,    0,    0,    0 ]
    NA   [     5,    0,    1,    1 ]
    NB   [     4,    0,    1,    1 ]

  @DF-UKS Final Energy:   -92.63516244747125

   => Energetics <=

    Nuclear Repulsion Energy =             22.7879870976321506
    One-Electron Energy =                -169.4725697049848350
    Two-Electron Energy =                  64.0894016565889757
    DFT Exchange-Correlation Energy =     -10.0399814967075240
    Empirical Dispersion Energy =           0.0000000000000000
    VV10 Nonlocal Energy =                  0.0000000000000000
    Total Energy =                        -92.6351624474712452

  UHF NO Occupations:
  HONO-2 :    1 B2 1.9988159
  HONO-1 :    1 B1 1.9988159
  HONO-0 :    5 A1 1.0000000
  LUNO+0 :    2 B2 0.0011841
  LUNO+1 :    2 B1 0.0011841
  LUNO+2 :    6 A1 0.0005338
  LUNO+3 :    7 A1 0.0000511

Computation Completed

Properties will be evaluated at   0.000000,   0.000000,   0.000000 [a0]

Properties computed using the B3LYP density matrix

 Multipole Moments:

 ------------------------------------------------------------------------------------
     Multipole            Electronic (a.u.)      Nuclear  (a.u.)        Total (a.u.)
 ------------------------------------------------------------------------------------

 L = 1.  Multiply by 2.5417464519 to convert [e a0] to [Debye]
 Dipole X            :          0.0000000            0.0000000            0.0000000
 Dipole Y            :          0.0000000            0.0000000            0.0000000
 Dipole Z            :          0.6756016            0.0013073            0.6769089
 Magnitude           :                                                    0.6769089

 L = 2.  Multiply by 1.3450342976 to convert [e a0^2] to [Debye ang]
 Quadrupole XX       :         -7.5870876            0.0000000           -7.5870876
 Quadrupole XY       :          0.0000000            0.0000000            0.0000000
 Quadrupole XZ       :          0.0000000            0.0000000            0.0000000
 Quadrupole YY       :         -7.5870876            0.0000000           -7.5870876
 Quadrupole YZ       :          0.0000000            0.0000000            0.0000000
 Quadrupole ZZ       :        -18.7357805           10.9746984           -7.7610821
 Traceless XX        :          3.7162310           -3.6582328            0.0579982
 Traceless YY        :          3.7162310           -3.6582328            0.0579982
 Traceless ZZ        :         -7.4324620            7.3164656           -0.1159964

 ------------------------------------------------------------------------------------
  ==> Computing MBIS Charges <==

  Electron Count from Grid (Expected Number): 13.00000 (13.00000)
  Difference: -0.00000

  MBIS Charges: (a.u.)
   Center  Symbol  Z      Pop.       Charge
      1       N    7    7.370134   -0.370134
      2       C    6    5.629866    0.370134

  MBIS Dipoles: [e a0]
   Center  Symbol  Z        X           Y           Z
      1       N    7   -0.000000   -0.000000   -0.116361
      2       C    6   -0.000000   -0.000000    0.111083

  MBIS Quadrupoles: [e a0^2]
   Center  Symbol  Z      XX        XY        XZ        YY        YZ        ZZ
      1       N    7   -4.1361    0.0000   -0.0000   -4.1361    0.0000   -4.6076
      2       C    6   -3.4509    0.0000   -0.0000   -3.4509    0.0000   -3.6688

  MBIS Octupoles: [e a0^3]
   Center  Symbol  Z      XXX       XXY       XXZ       XYY       XYZ       XZZ       YYY       YYZ       YZZ       ZZZ
      1       N    7   -0.0000   -0.0000   -0.0927   -0.0000    0.0000   -0.0000   -0.0000   -0.0927    0.0000    0.0860
      2       C    6   -0.0000   -0.0000   -0.0267   -0.0000    0.0000    0.0000    0.0000   -0.0267    0.0000   -0.1546

  MBIS Radial Moments:
   Center  Symbol  Z      [a0^2]      [a0^3]      [a0^4]
      1       N    7   12.879894   27.029685   67.994280
      2       C    6   10.570665   24.003390   65.469568

  MBIS Valence Widths: [a0]
   Center  Symbol  Z     Width
      1       N    7    0.434670
      2       C    6    0.472131

*** tstop() called on Mac.lan at Sun Aug 10 17:13:05 2025
Module time:
	user time   =       3.84 seconds =       0.06 minutes
	system time =       2.49 seconds =       0.04 minutes
	total time  =          1 seconds =       0.02 minutes
Total time:
	user time   =      20.68 seconds =       0.34 minutes
	system time =       5.08 seconds =       0.08 minutes
	total time  =          3 seconds =       0.05 minutes

    Psi4 stopped on: Sunday, 10 August 2025 05:13PM
    Psi4 wall time for execution: 0:00:02.50

*** Psi4 exiting successfully. Buy a developer a beer!
