                               Psi4 1.9.1 release

  ==> Input File <==

--------------------------------------------------------------------------
molecule {
0 2
O           0.000000           0.000000           0.000000
N           0.000000           0.000000           0.898052
}

set {
basis              cc-pvtz
reference          uks
maxiter            500
DAMPING_PERCENTAGE 1
E_CONVERGENCE      1.0E-8
D_CONVERGENCE      1.0E-8
DIIS_MAX_VECS      400
MBIS_MAXITER       8000
guess              read
}

E, wfn = energy('b3lyp', restart_file='last_wfn', return_wfn=True)
properties('b3lyp','MBIS_CHARGES', wfn=wfn)
wfn.to_file('last_wfn')
--------------------------------------------------------------------------

    Molecular point group: c2v
  Charge       = 0
  Multiplicity = 2
  Basis Set: CC-PVTZ
    Blend: CC-PVTZ
  Basis Set: (CC-PVTZ AUX)
    Blend: CC-PVTZ-JKFIT
  @DF-UKS Final Energy:  -129.70786066647497
    Total Energy =                       -129.7078606664749714
 Dipole X            :          0.0000000            0.0000000            0.0000000
 Dipole Y            :          0.0000000            0.0000000            0.0000000
 Dipole Z            :         -0.3066570           -0.0034051           -0.3100621
 Magnitude           :                                                    0.3100621
    Molecular point group: c2v

    Geometry (in Angstrom), charge = 0, multiplicity = 2:

       Center              X                  Y                   Z               Mass
    ------------   -----------------  -----------------  -----------------  -----------------
         O            0.000000000000     0.000000000000    -0.419211060230    15.994914619570
         N            0.000000000000     0.000000000000     0.478840939770    14.003074004430

  Charge       = 0
  Multiplicity = 2
  Basis Set: CC-PVTZ
    Blend: CC-PVTZ
  Basis Set: (CC-PVTZ AUX)
    Blend: CC-PVTZ-JKFIT

    Orbital Energies [Eh]
    ---------------------

    Alpha Occupied:

       1A1   -19.253236     2A1   -14.392624     3A1    -1.464541
       1B1    -0.665402     4A1    -0.660205     1B2    -0.646286
       5A1    -0.498942     2B1    -0.089416

    Alpha Virtual:

       2B2     0.016224     6A1     0.239278     3B1     0.380244
       3B2     0.382674     7A1     0.425036     8A1     0.526758
       4B1     0.602477     4B2     0.615408     1A2     0.897741
       9A1     0.899262    10A1     1.028473    11A1     1.200035
       5B1     1.276625     5B2     1.280002     2A2     1.601544
      12A1     1.603058    13A1     1.939982     6B1     2.072472
       6B2     2.076516    14A1     2.463580     7B1     2.743724
       7B2     2.753624    15A1     3.197035    16A1     3.687885
       8B1     3.725476     8B2     3.725781     9B1     3.802728
       9B2     3.810244     3A2     3.878805    17A1     3.880412
      10B1     4.167972    10B2     4.170415     4A2     4.369916
      18A1     4.373900    19A1     4.652035    11B2     4.846953
      11B1     4.847924    12B1     5.130724    12B2     5.130859
      20A1     5.670900     5A2     6.119601    21A1     6.121531
       6A2     6.177786    22A1     6.179171    13B1     6.562781
      13B2     6.563368    23A1     6.792416    24A1     7.386748
      14B1     7.999166    14B2     8.000336    25A1     8.939465
      26A1    21.019407

    Beta Occupied:

       1A1   -19.242387     2A1   -14.380240     3A1    -1.448836
       1B2    -0.637011     4A1    -0.630846     1B1    -0.599833
       5A1    -0.466664

    Beta Virtual:

       2B2     0.029775     2B1     0.066873     6A1     0.243849
       3B2     0.386746     3B1     0.407271     7A1     0.435574
       8A1     0.537951     4B2     0.621399     4B1     0.641551
       9A1     0.920335     1A2     0.920718    10A1     1.049800
      11A1     1.208762     5B2     1.283509     5B1     1.312267
       2A2     1.629583    12A1     1.629798    13A1     1.952029
       6B2     2.080777     6B1     2.103686    14A1     2.482209
       7B2     2.763390     7B1     2.799112    15A1     3.213043
      16A1     3.703340     8B2     3.759783     8B1     3.759865
       9B2     3.818275     9B1     3.850384     3A2     3.898126
      17A1     3.898762    10B2     4.174521    10B1     4.207797
      18A1     4.420391     4A2     4.421187    19A1     4.669208
      11B2     4.850769    11B1     4.880460    12B2     5.158299
      12B1     5.158313    20A1     5.686151    21A1     6.157332
       5A2     6.157355     6A2     6.202561    22A1     6.203015
      13B2     6.567208    13B1     6.596353    23A1     6.802563
      24A1     7.400042    14B2     8.005700    14B1     8.038038
      25A1     8.959426    26A1    21.034974

    Final Occupation by Irrep:
             A1    A2    B1    B2
    DOCC [     5,    0,    1,    1 ]
    SOCC [     0,    0,    1,    0 ]
    NA   [     5,    0,    2,    1 ]
    NB   [     5,    0,    1,    1 ]

  @DF-UKS Final Energy:  -129.70786066415280

   => Energetics <=

    Nuclear Repulsion Energy =             32.9980043444254960
    One-Electron Energy =                -241.2114056506165127
    Two-Electron Energy =                  91.2133111232352007
    DFT Exchange-Correlation Energy =     -12.7077704811969827
    Empirical Dispersion Energy =           0.0000000000000000
    VV10 Nonlocal Energy =                  0.0000000000000000
    Total Energy =                       -129.7078606641528040

  UHF NO Occupations:
  HONO-2 :    5 A1 1.9996726
  HONO-1 :    1 B1 1.9996507
  HONO-0 :    2 B1 1.0000000
  LUNO+0 :    3 B1 0.0003493
  LUNO+1 :    6 A1 0.0003274
  LUNO+2 :    7 A1 0.0000924
  LUNO+3 :    2 B2 0.0000203

Computation Completed

Properties will be evaluated at   0.000000,   0.000000,   0.000000 [a0]

Properties computed using the B3LYP density matrix

 Multipole Moments:

 ------------------------------------------------------------------------------------
     Multipole            Electronic (a.u.)      Nuclear  (a.u.)        Total (a.u.)
 ------------------------------------------------------------------------------------

 L = 1.  Multiply by 2.5417464519 to convert [e a0] to [Debye]
 Dipole X            :          0.0000000            0.0000000            0.0000000
 Dipole Y            :          0.0000000            0.0000000            0.0000000
 Dipole Z            :         -0.3066570           -0.0034051           -0.3100621
 Magnitude           :                                                    0.3100621

 L = 2.  Multiply by 1.3450342976 to convert [e a0^2] to [Debye ang]
 Quadrupole XX       :         -7.6481772            0.0000000           -7.6481772
 Quadrupole XY       :          0.0000000            0.0000000            0.0000000
 Quadrupole XZ       :          0.0000000            0.0000000            0.0000000
 Quadrupole YY       :         -6.6345309            0.0000000           -6.6345309
 Quadrupole YZ       :          0.0000000            0.0000000            0.0000000
 Quadrupole ZZ       :        -19.2631619           10.7522042           -8.5109577
 Traceless XX        :          3.5337795           -3.5840681           -0.0502886
 Traceless YY        :          4.5474257           -3.5840681            0.9633577
 Traceless ZZ        :         -8.0812052            7.1681361           -0.9130691

 ------------------------------------------------------------------------------------
  ==> Computing MBIS Charges <==

  Electron Count from Grid (Expected Number): 15.00000 (15.00000)
  Difference: -0.00000

  MBIS Charges: (a.u.)
   Center  Symbol  Z      Pop.       Charge
      1       O    8    7.887460    0.112540
      2       N    7    7.112540   -0.112540

  MBIS Dipoles: [e a0]
   Center  Symbol  Z        X           Y           Z
      1       O    8    0.000000   -0.000000    0.107209
      2       N    7    0.000000   -0.000000   -0.226282

  MBIS Quadrupoles: [e a0^2]
   Center  Symbol  Z      XX        XY        XZ        YY        YZ        ZZ
      1       O    8   -3.3193   -0.0000    0.0000   -3.0343    0.0000   -3.5372
      2       N    7   -4.3289    0.0000    0.0000   -3.6002   -0.0000   -4.3729

  MBIS Octupoles: [e a0^3]
   Center  Symbol  Z      XXX       XXY       XXZ       XYY       XYZ       XZZ       YYY       YYZ       YZZ       ZZZ
      1       O    8    0.0000   -0.0000    0.2133    0.0000    0.0000   -0.0000   -0.0000    0.1433    0.0000    0.2431
      2       N    7    0.0000   -0.0000   -0.6568    0.0000   -0.0000    0.0000   -0.0000   -0.2255   -0.0000   -0.3018

  MBIS Radial Moments:
   Center  Symbol  Z      [a0^2]      [a0^3]      [a0^4]
      1       O    8    9.890770   17.546879   37.570806
      2       N    7   12.301999   26.114381   66.458481

  MBIS Valence Widths: [a0]
   Center  Symbol  Z     Width
      1       O    8    0.362834
      2       N    7    0.433666

*** tstop() called on Mac.lan at Sun Aug 10 17:20:06 2025
Module time:
	user time   =       3.77 seconds =       0.06 minutes
	system time =       2.56 seconds =       0.04 minutes
	total time  =          1 seconds =       0.02 minutes
Total time:
	user time   =      16.39 seconds =       0.27 minutes
	system time =       5.06 seconds =       0.08 minutes
	total time  =          2 seconds =       0.03 minutes

    Psi4 stopped on: Sunday, 10 August 2025 05:20PM
    Psi4 wall time for execution: 0:00:02.07

*** Psi4 exiting successfully. Buy a developer a beer!
