                               Psi4 1.9.1 release

  ==> Input File <==

--------------------------------------------------------------------------
molecule {
0 2
O           0.000000           0.000000           0.000000
H           0.000000           0.000000           0.602664
}

set {
basis              cc-pvtz
reference          uks
maxiter            500
DAMPING_PERCENTAGE 1
E_CONVERGENCE      1.0E-8
D_CONVERGENCE      1.0E-8
DIIS_MAX_VECS      400
MBIS_MAXITER       8000
guess              read
}

E, wfn = energy('b3lyp', restart_file='last_wfn', return_wfn=True)
properties('b3lyp','MBIS_CHARGES', wfn=wfn)
wfn.to_file('last_wfn')
--------------------------------------------------------------------------

    Molecular point group: c2v
  Charge       = 0
  Multiplicity = 2
  Basis Set: CC-PVTZ
    Blend: CC-PVTZ
  Basis Set: (CC-PVTZ AUX)
    Blend: CC-PVTZ-JKFIT
  @DF-UKS Final Energy:   -75.42912215773633
    Total Energy =                        -75.4291221577363302
 Dipole X            :          0.0000000            0.0000000            0.0000000
 Dipole Y            :          0.0000000            0.0000000            0.0000000
 Dipole Z            :          0.0475432            0.5313187            0.5788620
 Magnitude           :                                                    0.5788620
    Molecular point group: c2v

    Geometry (in Angstrom), charge = 0, multiplicity = 2:

       Center              X                  Y                   Z               Mass
    ------------   -----------------  -----------------  -----------------  -----------------
         O            0.000000000000     0.000000000000    -0.035722470476    15.994914619570
         H            0.000000000000     0.000000000000     0.566941529524     1.007825032230

  Charge       = 0
  Multiplicity = 2
  Basis Set: CC-PVTZ
    Blend: CC-PVTZ
  Basis Set: (CC-PVTZ AUX)
    Blend: CC-PVTZ-JKFIT

    Orbital Energies [Eh]
    ---------------------

    Alpha Occupied:

       1A1   -19.168183     2A1    -1.183918     3A1    -0.533019
       1B1    -0.442376     1B2    -0.368630

    Alpha Virtual:

       4A1     0.065495     5A1     0.465975     2B1     0.503864
       2B2     0.535192     6A1     0.642324     3B1     0.765577
       3B2     0.788906     7A1     0.792736     8A1     1.407085
       1A2     1.407819     9A1     1.717546     4B1     1.824214
       4B2     1.860559    10A1     2.082573    11A1     2.849735
       5B1     3.281632     5B2     3.315219     2A2     3.383883
      12A1     3.383933     6B1     3.616836     6B2     3.668771
      13A1     3.941199     7B1     4.589718     7B2     4.626509
      14A1     4.686006     8B1     5.048223     8B2     5.048494
      15A1     5.927874     3A2     5.937891    16A1     6.023219
       9B1     6.082130     4A2     6.123042    17A1     6.126159
       9B2     6.132742    18A1     7.899976    19A1     8.157856
      10B1     8.444860    10B2     8.495365    20A1    15.400725

    Beta Occupied:

       1A1   -19.143211     2A1    -1.120977     3A1    -0.498762
       1B2    -0.342880

    Beta Virtual:

       1B1    -0.192810     4A1     0.070046     5A1     0.472467
       2B2     0.543504     2B1     0.563795     6A1     0.651470
       3B2     0.792011     3B1     0.798708     7A1     0.813730
       1A2     1.460714     8A1     1.466409     9A1     1.738247
       4B2     1.865874     4B1     1.869795    10A1     2.108360
      11A1     2.858840     5B2     3.321124     5B1     3.332604
       2A2     3.403952    12A1     3.405275     6B2     3.683155
       6B1     3.700895    13A1     3.959890     7B2     4.631961
       7B1     4.638003    14A1     4.716899     8B2     5.118738
       8B1     5.121616     3A2     5.982263    15A1     5.986551
      16A1     6.053116     9B2     6.140858     9B1     6.145723
       4A2     6.213359    17A1     6.228546    18A1     7.919437
      19A1     8.175407    10B2     8.505475    10B1     8.517230
      20A1    15.428880

    Final Occupation by Irrep:
             A1    A2    B1    B2
    DOCC [     3,    0,    0,    1 ]
    SOCC [     0,    0,    1,    0 ]
    NA   [     3,    0,    1,    1 ]
    NB   [     3,    0,    0,    1 ]

  @DF-UKS Final Energy:   -75.42912215799097

   => Energetics <=

    Nuclear Repulsion Energy =              7.0245073297226979
    One-Electron Energy =                -116.7913299498324875
    Two-Electron Energy =                  41.7377561632679175
    DFT Exchange-Correlation Energy =      -7.4000557011491024
    Empirical Dispersion Energy =           0.0000000000000000
    VV10 Nonlocal Energy =                  0.0000000000000000
    Total Energy =                        -75.4291221579909745

  UHF NO Occupations:
  HONO-2 :    1 B2 1.9998603
  HONO-1 :    3 A1 1.9993915
  HONO-0 :    1 B1 1.0000000
  LUNO+0 :    4 A1 0.0006085
  LUNO+1 :    2 B2 0.0001397
  LUNO+2 :    5 A1 0.0000802
  LUNO+3 :    6 A1 0.0000006

Computation Completed

Properties will be evaluated at   0.000000,   0.000000,   0.000000 [a0]

Properties computed using the B3LYP density matrix

 Multipole Moments:

 ------------------------------------------------------------------------------------
     Multipole            Electronic (a.u.)      Nuclear  (a.u.)        Total (a.u.)
 ------------------------------------------------------------------------------------

 L = 1.  Multiply by 2.5417464519 to convert [e a0] to [Debye]
 Dipole X            :          0.0000000            0.0000000            0.0000000
 Dipole Y            :          0.0000000            0.0000000            0.0000000
 Dipole Z            :          0.0475432            0.5313187            0.5788620
 Magnitude           :                                                    0.5788620

 L = 2.  Multiply by 1.3450342976 to convert [e a0^2] to [Debye ang]
 Quadrupole XX       :         -3.7151269            0.0000000           -3.7151269
 Quadrupole XY       :          0.0000000            0.0000000            0.0000000
 Quadrupole XZ       :          0.0000000            0.0000000            0.0000000
 Quadrupole YY       :         -4.5791255            0.0000000           -4.5791255
 Quadrupole YZ       :          0.0000000            0.0000000            0.0000000
 Quadrupole ZZ       :         -4.8277208            1.1842774           -3.6434434
 Traceless XX        :          0.6588642           -0.3947591            0.2641051
 Traceless YY        :         -0.2051344           -0.3947591           -0.5998936
 Traceless ZZ        :         -0.4537298            0.7895183            0.3357885

 ------------------------------------------------------------------------------------
  ==> Computing MBIS Charges <==

  Electron Count from Grid (Expected Number):  9.00000 ( 9.00000)
  Difference:  0.00000

  MBIS Charges: (a.u.)
   Center  Symbol  Z      Pop.       Charge
      1       O    8    8.440228   -0.440228
      2       H    1    0.559772    0.440228

  MBIS Dipoles: [e a0]
   Center  Symbol  Z        X           Y           Z
      1       O    8   -0.000000   -0.000000    0.059935
      2       H    1   -0.000000   -0.000000    0.017564

  MBIS Quadrupoles: [e a0^2]
   Center  Symbol  Z      XX        XY        XZ        YY        YZ        ZZ
      1       O    8   -3.5953    0.0000    0.0000   -4.4440   -0.0000   -4.0520
      2       H    1   -0.1198    0.0000    0.0000   -0.1351   -0.0000   -0.1243

  MBIS Octupoles: [e a0^3]
   Center  Symbol  Z      XXX       XXY       XXZ       XYY       XYZ       XZZ       YYY       YYZ       YZZ       ZZZ
      1       O    8   -0.0000   -0.0000    0.1580   -0.0000    0.0000   -0.0000   -0.0000    0.1026   -0.0000    0.2106
      2       H    1    0.0000    0.0000    0.0019    0.0000    0.0000    0.0000   -0.0000    0.0039   -0.0000    0.0057

  MBIS Radial Moments:
   Center  Symbol  Z      [a0^2]      [a0^3]      [a0^4]
      1       O    8   12.091330   22.802753   51.377120
      2       H    1    0.379206    0.446315    0.632394

  MBIS Valence Widths: [a0]
   Center  Symbol  Z     Width
      1       O    8    0.385383
      2       H    1    0.239391

*** tstop() called on Mac.lan at Sun Aug 10 17:11:07 2025
Module time:
	user time   =       2.77 seconds =       0.05 minutes
	system time =       3.03 seconds =       0.05 minutes
	total time  =          1 seconds =       0.02 minutes
Total time:
	user time   =      11.40 seconds =       0.19 minutes
	system time =       5.23 seconds =       0.09 minutes
	total time  =          2 seconds =       0.03 minutes

    Psi4 stopped on: Sunday, 10 August 2025 05:11PM
    Psi4 wall time for execution: 0:00:01.63

*** Psi4 exiting successfully. Buy a developer a beer!
