                               Psi4 1.9.1 release

  ==> Input File <==

--------------------------------------------------------------------------
molecule {
0 2
C           0.000000           0.000000           0.000000
H           0.000000           0.000000           1.252123
}

set {
basis              cc-pvtz
reference          uks
maxiter            500
DAMPING_PERCENTAGE 1
E_CONVERGENCE      1.0E-8
D_CONVERGENCE      1.0E-8
DIIS_MAX_VECS      400
MBIS_MAXITER       8000
guess              read
}

E, wfn = energy('b3lyp', restart_file='last_wfn', return_wfn=True)
properties('b3lyp','MBIS_CHARGES', wfn=wfn)
wfn.to_file('last_wfn')
--------------------------------------------------------------------------

    Molecular point group: c2v
  Charge       = 0
  Multiplicity = 2
  Basis Set: CC-PVTZ
    Blend: CC-PVTZ
  Basis Set: (CC-PVTZ AUX)
    Blend: CC-PVTZ-JKFIT
  @DF-UKS Final Energy:   -38.48978563366767
    Total Energy =                        -38.4897856336676654
 Dipole X            :          0.0000000            0.0000000            0.0000000
 Dipole Y            :          0.0000000            0.0000000            0.0000000
 Dipole Z            :         -0.6036009            1.0828809            0.4792800
 Magnitude           :                                                    0.4792800
    Molecular point group: c2v

    Geometry (in Angstrom), charge = 0, multiplicity = 2:

       Center              X                  Y                   Z               Mass
    ------------   -----------------  -----------------  -----------------  -----------------
         C            0.000000000000     0.000000000000    -0.097012444410    12.000000000000
         H            0.000000000000     0.000000000000     1.155110555590     1.007825032230

  Charge       = 0
  Multiplicity = 2
  Basis Set: CC-PVTZ
    Blend: CC-PVTZ
  Basis Set: (CC-PVTZ AUX)
    Blend: CC-PVTZ-JKFIT

    Orbital Energies [Eh]
    ---------------------

    Alpha Occupied:

       1A1   -10.295824     2A1    -0.626563     3A1    -0.322834
       1B1    -0.261817

    Alpha Virtual:

       1B2    -0.149268     4A1     0.039927     5A1     0.275600
       2B1     0.289830     2B2     0.309523     6A1     0.330558
       7A1     0.444015     3B1     0.554826     3B2     0.557598
       1A2     0.654505     8A1     0.660241     9A1     0.926546
       4B1     0.994417     4B2     0.995036    10A1     1.260580
       5B1     1.915655     5B2     1.942064    11A1     2.111866
      12A1     2.301613     2A2     2.535030    13A1     2.538901
       6B1     2.577541     6B2     2.582831     7B1     2.639305
       7B2     2.641823    14A1     2.798126     3A2     2.894623
      15A1     2.908220     8B1     3.034233     8B2     3.045753
      16A1     3.099585     4A2     3.439208    17A1     3.440585
       9B2     3.740178     9B1     3.742531    18A1     4.047465
      10B1     4.380164    10B2     4.380408    19A1     4.479674
      20A1     6.936597

    Beta Occupied:

       1A1   -10.280862     2A1    -0.581538     3A1    -0.305101

    Beta Virtual:

       1B2    -0.133133     1B1    -0.086814     4A1     0.046889
       5A1     0.280985     2B2     0.316979     6A1     0.338983
       2B1     0.345786     7A1     0.462355     3B2     0.558525
       3B1     0.579439     8A1     0.697699     1A2     0.698028
       9A1     0.939786     4B2     0.996418     4B1     1.016132
      10A1     1.267749     5B2     1.953248     5B1     1.997095
      11A1     2.123491    12A1     2.310628     2A2     2.565674
      13A1     2.565760     6B2     2.585964     6B1     2.617561
       7B2     2.698005     7B1     2.698714    14A1     2.817287
       3A2     2.972996    15A1     2.975185     8B2     3.050795
       8B1     3.092053    16A1     3.117164     4A2     3.447351
      17A1     3.447676     9B2     3.735384     9B1     3.743078
      18A1     4.057733    10B2     4.380337    10B1     4.400627
      19A1     4.482716    20A1     6.953127

    Final Occupation by Irrep:
             A1    A2    B1    B2
    DOCC [     3,    0,    0,    0 ]
    SOCC [     0,    0,    1,    0 ]
    NA   [     3,    0,    1,    0 ]
    NB   [     3,    0,    0,    0 ]

  @DF-UKS Final Energy:   -38.48978563411670

   => Energetics <=

    Nuclear Repulsion Energy =              2.5357439037698368
    One-Electron Energy =                 -56.1153558551723393
    Two-Electron Energy =                  19.6052993407327882
    DFT Exchange-Correlation Energy =      -4.5154730234469769
    Empirical Dispersion Energy =           0.0000000000000000
    VV10 Nonlocal Energy =                  0.0000000000000000
    Total Energy =                        -38.4897856341166928

  UHF NO Occupations:
  HONO-2 :    2 A1 1.9997570
  HONO-1 :    3 A1 1.9986378
  HONO-0 :    1 B1 1.0000000
  LUNO+0 :    4 A1 0.0013622
  LUNO+1 :    5 A1 0.0002430
  LUNO+2 :    6 A1 0.0000007
  LUNO+3 :    7 A1 0.0000000

Computation Completed

Properties will be evaluated at   0.000000,   0.000000,   0.000000 [a0]

Properties computed using the B3LYP density matrix

 Multipole Moments:

 ------------------------------------------------------------------------------------
     Multipole            Electronic (a.u.)      Nuclear  (a.u.)        Total (a.u.)
 ------------------------------------------------------------------------------------

 L = 1.  Multiply by 2.5417464519 to convert [e a0] to [Debye]
 Dipole X            :          0.0000000            0.0000000            0.0000000
 Dipole Y            :          0.0000000            0.0000000            0.0000000
 Dipole Z            :         -0.6036009            1.0828809            0.4792800
 Magnitude           :                                                    0.4792800

 L = 2.  Multiply by 1.3450342976 to convert [e a0^2] to [Debye ang]
 Quadrupole XX       :         -5.7904502            0.0000000           -5.7904502
 Quadrupole XY       :          0.0000000            0.0000000            0.0000000
 Quadrupole XZ       :          0.0000000            0.0000000            0.0000000
 Quadrupole YY       :         -4.3043135            0.0000000           -4.3043135
 Quadrupole YZ       :          0.0000000            0.0000000            0.0000000
 Quadrupole ZZ       :        -10.5854308            4.9664544           -5.6189763
 Traceless XX        :          1.1029480           -1.6554848           -0.5525368
 Traceless YY        :          2.5890846           -1.6554848            0.9335998
 Traceless ZZ        :         -3.6920326            3.3109696           -0.3810630

 ------------------------------------------------------------------------------------
  ==> Computing MBIS Charges <==

  Electron Count from Grid (Expected Number):  7.00000 ( 7.00000)
  Difference:  0.00000

  MBIS Charges: (a.u.)
   Center  Symbol  Z      Pop.       Charge
      1       C    6    6.055513   -0.055513
      2       H    1    0.944487    0.055513

  MBIS Dipoles: [e a0]
   Center  Symbol  Z        X           Y           Z
      1       C    6    0.000000    0.000000    0.290635
      2       H    1    0.000000   -0.000000    0.057291

  MBIS Quadrupoles: [e a0^2]
   Center  Symbol  Z      XX        XY        XZ        YY        YZ        ZZ
      1       C    6   -5.1133    0.0000   -0.0000   -3.7026   -0.0000   -5.3563
      2       H    1   -0.6771    0.0000   -0.0000   -0.6017   -0.0000   -0.6689

  MBIS Octupoles: [e a0^3]
   Center  Symbol  Z      XXX       XXY       XXZ       XYY       XYZ       XZZ       YYY       YYZ       YZZ       ZZZ
      1       C    6   -0.0000   -0.0000    0.3727   -0.0000   -0.0000   -0.0000   -0.0000    0.3669   -0.0000    0.6658
      2       H    1    0.0000   -0.0000   -0.0005   -0.0000   -0.0000   -0.0000   -0.0000   -0.0534   -0.0000   -0.0261

  MBIS Radial Moments:
   Center  Symbol  Z      [a0^2]      [a0^3]      [a0^4]
      1       C    6   14.172205   35.359742   105.550071
      2       H    1    1.947731    4.018656    9.994398

  MBIS Valence Widths: [a0]
   Center  Symbol  Z     Width
      1       C    6    0.523917
      2       H    1    0.416823

*** tstop() called on Mac.lan at Sun Aug 10 17:09:13 2025
Module time:
	user time   =       2.88 seconds =       0.05 minutes
	system time =       1.63 seconds =       0.03 minutes
	total time  =          1 seconds =       0.02 minutes
Total time:
	user time   =      12.59 seconds =       0.21 minutes
	system time =       3.72 seconds =       0.06 minutes
	total time  =          2 seconds =       0.03 minutes

    Psi4 stopped on: Sunday, 10 August 2025 05:09PM
    Psi4 wall time for execution: 0:00:01.61

*** Psi4 exiting successfully. Buy a developer a beer!
