                               Psi4 1.9.1 release

  ==> Input File <==

--------------------------------------------------------------------------
molecule {
0 2
O           0.000000           0.000000           0.000000
H           0.000000           0.000000           1.390305
}

set {
basis              cc-pvtz
reference          uks
maxiter            500
DAMPING_PERCENTAGE 1
E_CONVERGENCE      1.0E-8
D_CONVERGENCE      1.0E-8
DIIS_MAX_VECS      400
MBIS_MAXITER       8000
guess              read
}

E, wfn = energy('b3lyp', restart_file='last_wfn', return_wfn=True)
properties('b3lyp','MBIS_CHARGES', wfn=wfn)
wfn.to_file('last_wfn')
--------------------------------------------------------------------------

    Molecular point group: c2v
  Charge       = 0
  Multiplicity = 2
  Basis Set: CC-PVTZ
    Blend: CC-PVTZ
  Basis Set: (CC-PVTZ AUX)
    Blend: CC-PVTZ-JKFIT
  @DF-UKS Final Energy:   -75.69723940503670
    Total Energy =                        -75.6972394050367114
 Dipole X            :          0.0000000            0.0000000            0.0000000
 Dipole Y            :          0.0000000            0.0000000            0.0000000
 Dipole Z            :         -0.5220927            1.2257163            0.7036236
 Magnitude           :                                                    0.7036236
    Molecular point group: c2v

    Geometry (in Angstrom), charge = 0, multiplicity = 2:

       Center              X                  Y                   Z               Mass
    ------------   -----------------  -----------------  -----------------  -----------------
         O            0.000000000000     0.000000000000    -0.082409318153    15.994914619570
         H            0.000000000000     0.000000000000     1.307895681847     1.007825032230

  Charge       = 0
  Multiplicity = 2
  Basis Set: CC-PVTZ
    Blend: CC-PVTZ
  Basis Set: (CC-PVTZ AUX)
    Blend: CC-PVTZ-JKFIT

    Orbital Energies [Eh]
    ---------------------

    Alpha Occupied:

       1A1   -19.218002     2A1    -0.959161     3A1    -0.421349
       1B1    -0.408629     1B2    -0.334754

    Alpha Virtual:

       4A1    -0.078615     5A1     0.252143     2B1     0.498222
       2B2     0.525592     6A1     0.570278     3B1     0.672583
       3B2     0.689577     7A1     0.814145     8A1     1.048500
       1A2     1.436572     9A1     1.437362     4B1     1.533428
       4B2     1.571243    10A1     1.973152    11A1     2.349902
      12A1     3.133485     2A2     3.152717    13A1     3.152775
       5B1     3.211916     5B2     3.232129     6B1     3.591097
       6B2     3.624257     7B1     3.634929     7B2     3.662426
      14A1     3.792726    15A1     4.601197     8B1     5.077589
       8B2     5.077934     3A2     5.096802    16A1     5.098024
       9B1     5.337963     9B2     5.386812    17A1     5.766826
      18A1     6.118493     4A2     6.118837    10B1     6.294108
      10B2     6.353099    19A1     6.934266    20A1     7.543939

    Beta Occupied:

       1A1   -19.189929     2A1    -0.875845     3A1    -0.399434
       1B2    -0.307063

    Beta Virtual:

       1B1    -0.157040     4A1    -0.071398     5A1     0.244983
       2B2     0.527959     2B1     0.544732     6A1     0.585898
       3B2     0.687905     3B1     0.697172     7A1     0.830873
       8A1     1.066047     1A2     1.489457     9A1     1.495595
       4B2     1.579618     4B1     1.587291    10A1     1.988659
      11A1     2.332036     2A2     3.136026    12A1     3.136138
      13A1     3.142689     5B2     3.225151     5B1     3.230032
       6B1     3.604033     6B2     3.604328     7B2     3.675118
       7B1     3.702434    14A1     3.786012    15A1     4.619293
       3A2     5.147546     8B2     5.148555     8B1     5.151562
      16A1     5.152956     9B2     5.399897     9B1     5.406054
      17A1     5.799555     4A2     6.212983    18A1     6.227839
      10B2     6.374159    10B1     6.398287    19A1     6.975005
      20A1     7.594953

    Final Occupation by Irrep:
             A1    A2    B1    B2
    DOCC [     3,    0,    0,    1 ]
    SOCC [     0,    0,    1,    0 ]
    NA   [     3,    0,    1,    1 ]
    NB   [     3,    0,    0,    1 ]

  @DF-UKS Final Energy:   -75.69723940475782

   => Energetics <=

    Nuclear Repulsion Energy =              3.0449560962234905
    One-Electron Energy =                -110.2730077436228129
    Two-Electron Energy =                  38.6181191088159537
    DFT Exchange-Correlation Energy =      -7.0873068661744432
    Empirical Dispersion Energy =           0.0000000000000000
    VV10 Nonlocal Energy =                  0.0000000000000000
    Total Energy =                        -75.6972394047578092

  UHF NO Occupations:
  HONO-2 :    2 A1 1.9994563
  HONO-1 :    3 A1 1.9935287
  HONO-0 :    1 B1 1.0000000
  LUNO+0 :    4 A1 0.0064713
  LUNO+1 :    5 A1 0.0005437
  LUNO+2 :    2 B2 0.0001883
  LUNO+3 :    6 A1 0.0000006

Computation Completed

Properties will be evaluated at   0.000000,   0.000000,   0.000000 [a0]

Properties computed using the B3LYP density matrix

 Multipole Moments:

 ------------------------------------------------------------------------------------
     Multipole            Electronic (a.u.)      Nuclear  (a.u.)        Total (a.u.)
 ------------------------------------------------------------------------------------

 L = 1.  Multiply by 2.5417464519 to convert [e a0] to [Debye]
 Dipole X            :          0.0000000            0.0000000            0.0000000
 Dipole Y            :          0.0000000            0.0000000            0.0000000
 Dipole Z            :         -0.5220927            1.2257163            0.7036236
 Magnitude           :                                                    0.7036236

 L = 2.  Multiply by 1.3450342976 to convert [e a0^2] to [Debye ang]
 Quadrupole XX       :         -4.2792344            0.0000000           -4.2792344
 Quadrupole XY       :          0.0000000            0.0000000            0.0000000
 Quadrupole XZ       :          0.0000000            0.0000000            0.0000000
 Quadrupole YY       :         -5.1769311            0.0000000           -5.1769311
 Quadrupole YZ       :          0.0000000            0.0000000            0.0000000
 Quadrupole ZZ       :         -8.8945674            6.3026490           -2.5919183
 Traceless XX        :          1.8376766           -2.1008830           -0.2632064
 Traceless YY        :          0.9399798           -2.1008830           -1.1609032
 Traceless ZZ        :         -2.7776564            4.2017660            1.4241096

 ------------------------------------------------------------------------------------
  ==> Computing MBIS Charges <==

  Electron Count from Grid (Expected Number):  9.00000 ( 9.00000)
  Difference: -0.00000

  MBIS Charges: (a.u.)
   Center  Symbol  Z      Pop.       Charge
      1       O    8    8.291012   -0.291012
      2       H    1    0.708988    0.291012

  MBIS Dipoles: [e a0]
   Center  Symbol  Z        X           Y           Z
      1       O    8   -0.000000   -0.000000   -0.127433
      2       H    1   -0.000000   -0.000000    0.066482

  MBIS Quadrupoles: [e a0^2]
   Center  Symbol  Z      XX        XY        XZ        YY        YZ        ZZ
      1       O    8   -3.7375    0.0000    0.0000   -4.5956    0.0000   -4.2085
      2       H    1   -0.5418    0.0000   -0.0000   -0.5813   -0.0000   -0.5224

  MBIS Octupoles: [e a0^3]
   Center  Symbol  Z      XXX       XXY       XXZ       XYY       XYZ       XZZ       YYY       YYZ       YZZ       ZZZ
      1       O    8   -0.0000    0.0000   -0.1730   -0.0000    0.0000    0.0000   -0.0000   -0.1538   -0.0000   -0.6505
      2       H    1    0.0000    0.0000    0.0152    0.0000    0.0000   -0.0000    0.0000    0.0546   -0.0000    0.0945

  MBIS Radial Moments:
   Center  Symbol  Z      [a0^2]      [a0^3]      [a0^4]
      1       O    8   12.541583   24.358355   56.529748
      2       H    1    1.645448    3.583254    9.326635

  MBIS Valence Widths: [a0]
   Center  Symbol  Z     Width
      1       O    8    0.398086
      2       H    1    0.441905

*** tstop() called on Mac.lan at Sun Aug 10 17:11:58 2025
Module time:
	user time   =       2.71 seconds =       0.05 minutes
	system time =       1.89 seconds =       0.03 minutes
	total time  =          0 seconds =       0.00 minutes
Total time:
	user time   =      19.03 seconds =       0.32 minutes
	system time =       4.21 seconds =       0.07 minutes
	total time  =          2 seconds =       0.03 minutes

    Psi4 stopped on: Sunday, 10 August 2025 05:11PM
    Psi4 wall time for execution: 0:00:02.30

*** Psi4 exiting successfully. Buy a developer a beer!
