                               Psi4 1.9.1 release

  ==> Input File <==

--------------------------------------------------------------------------
molecule {
0 3
O           0.000000           0.000000           0.000000
O           0.000000           0.000000           1.432228
}

set {
basis              cc-pvtz
reference          uks
maxiter            500
DAMPING_PERCENTAGE 1
E_CONVERGENCE      1.0E-8
D_CONVERGENCE      1.0E-8
DIIS_MAX_VECS      400
MBIS_MAXITER       8000
guess              read
}

E, wfn = energy('b3lyp', restart_file='last_wfn', return_wfn=True)
properties('b3lyp','MBIS_CHARGES', wfn=wfn)
wfn.to_file('last_wfn')
--------------------------------------------------------------------------

    Molecular point group: d2h
  Charge       = 0
  Multiplicity = 3
  Basis Set: CC-PVTZ
    Blend: CC-PVTZ
  Basis Set: (CC-PVTZ AUX)
    Blend: CC-PVTZ-JKFIT
  @DF-UKS Final Energy:  -150.33546486139190
    Total Energy =                       -150.3354648613919267
 Dipole X            :          0.0000000            0.0000000            0.0000000
 Dipole Y            :          0.0000000            0.0000000            0.0000000
 Dipole Z            :          0.0000000            0.0000000            0.0000000
 Magnitude           :                                                    0.0000000
    Molecular point group: d2h

    Geometry (in Angstrom), charge = 0, multiplicity = 3:

       Center              X                  Y                   Z               Mass
    ------------   -----------------  -----------------  -----------------  -----------------
         O            0.000000000000     0.000000000000    -0.716114000000    15.994914619570
         O            0.000000000000     0.000000000000     0.716114000000    15.994914619570

  Charge       = 0
  Multiplicity = 3
  Basis Set: CC-PVTZ
    Blend: CC-PVTZ
  Basis Set: (CC-PVTZ AUX)
    Blend: CC-PVTZ-JKFIT

    Orbital Energies [Eh]
    ---------------------

    Alpha Occupied:

       1Ag   -19.311011     1B1u  -19.310949     2Ag    -1.172830
       2B1u   -0.905395     3Ag    -0.522009     1B2u   -0.512506
       1B3u   -0.512506     1B3g   -0.369151     1B2g   -0.369151

    Alpha Virtual:

       3B1u   -0.035320     4B1u    0.471064     2B3u    0.503051
       2B2u    0.503051     4Ag     0.572520     2B3g    0.605500
       2B2g    0.605500     5Ag     0.680074     5B1u    1.156236
       3B2u    1.199206     3B3u    1.199206     6Ag     1.263067
       1B1g    1.263067     1Au     1.520320     6B1u    1.520320
       7Ag     1.772129     3B3g    1.987734     3B2g    1.987734
       7B1u    2.211354     4B3u    3.371628     4B2u    3.371628
       8Ag     3.390790     4B2g    3.569080     4B3g    3.569080
       8B1u    4.310819     5B2u    4.617547     5B3u    4.617547
       9Ag     4.714751    10Ag     4.750841     2B1g    4.750841
       6B2u    4.970927     6B3u    4.970927     5B3g    5.044777
       5B2g    5.044777     9B1u    5.285596     2Au     5.285597
       6B3g    5.769122     6B2g    5.769122     3B1g    5.981828
      11Ag     5.981844    10B1u    6.047087     7B2u    6.125819
       7B3u    6.125819     3Au     6.141187    11B1u    6.141206
      12Ag     6.528747     7B3g    6.753973     7B2g    6.753973
      12B1u    6.850559    13Ag     7.405603    13B1u    8.846314

    Beta Occupied:

       1Ag   -19.280916     1B1u  -19.280772     2Ag    -1.107360
       2B1u   -0.815566     3Ag    -0.489956     1B2u   -0.405084
       1B3u   -0.405084

    Beta Virtual:

       1B3g   -0.178907     1B2g   -0.178907     3B1u    0.003720
       4B1u    0.483987     2B3u    0.543689     2B2u    0.543689
       4Ag     0.585440     2B3g    0.644650     2B2g    0.644650
       5Ag     0.699933     5B1u    1.188506     3B2u    1.223488
       3B3u    1.223488     6Ag     1.308979     1B1g    1.308980
       6B1u    1.578917     1Au     1.578918     7Ag     1.803186
       3B3g    2.022425     3B2g    2.022425     7B1u    2.231786
       8Ag     3.409114     4B3u    3.444578     4B2u    3.444578
       4B2g    3.646131     4B3g    3.646131     8B1u    4.343930
       5B2u    4.653190     5B3u    4.653190     9Ag     4.750222
      10Ag     4.797092     2B1g    4.797092     6B2u    5.043774
       6B3u    5.043774     5B3g    5.118779     5B2g    5.118779
       9B1u    5.337507     2Au     5.337509     6B3g    5.816968
       6B2g    5.816968    10B1u    6.079171     3B1g    6.091019
      11Ag     6.091035     7B2u    6.186842     7B3u    6.186842
       3Au     6.247650    11B1u    6.247667    12Ag     6.553728
       7B3g    6.801932     7B2g    6.801932    12B1u    6.892257
      13Ag     7.467053    13B1u    8.885895

    Final Occupation by Irrep:
             Ag   B1g   B2g   B3g    Au   B1u   B2u   B3u
    DOCC [     3,    0,    0,    0,    0,    2,    1,    1 ]
    SOCC [     0,    0,    1,    1,    0,    0,    0,    0 ]
    NA   [     3,    0,    1,    1,    0,    2,    1,    1 ]
    NB   [     3,    0,    0,    0,    0,    2,    1,    1 ]

  @DF-UKS Final Energy:  -150.33546486128611

   => Energetics <=

    Nuclear Repulsion Energy =             23.6466131669538591
    One-Electron Energy =                -253.3827867826421993
    Two-Electron Energy =                  93.0522896706471130
    DFT Exchange-Correlation Energy =     -13.6515809162449102
    Empirical Dispersion Energy =           0.0000000000000000
    VV10 Nonlocal Energy =                  0.0000000000000000
    Total Energy =                       -150.3354648612861126

  UHF NO Occupations:
  HONO-2 :    1B3u 1.9979546
  HONO-1 :    1B3g 1.0000000
  HONO-0 :    1B2g 1.0000000
  LUNO+0 :    2B3u 0.0020454
  LUNO+1 :    2B2u 0.0020454
  LUNO+2 :    3B1u 0.0006778
  LUNO+3 :    4 Ag 0.0003127

Computation Completed

Properties will be evaluated at   0.000000,   0.000000,   0.000000 [a0]

Properties computed using the B3LYP density matrix

 Multipole Moments:

 ------------------------------------------------------------------------------------
     Multipole            Electronic (a.u.)      Nuclear  (a.u.)        Total (a.u.)
 ------------------------------------------------------------------------------------

 L = 1.  Multiply by 2.5417464519 to convert [e a0] to [Debye]
 Dipole X            :          0.0000000            0.0000000            0.0000000
 Dipole Y            :          0.0000000            0.0000000            0.0000000
 Dipole Z            :          0.0000000            0.0000000            0.0000000
 Magnitude           :                                                    0.0000000

 L = 2.  Multiply by 1.3450342976 to convert [e a0^2] to [Debye ang]
 Quadrupole XX       :         -7.6276097            0.0000000           -7.6276097
 Quadrupole XY       :          0.0000000            0.0000000            0.0000000
 Quadrupole XZ       :          0.0000000            0.0000000            0.0000000
 Quadrupole YY       :         -7.6276097            0.0000000           -7.6276097
 Quadrupole YZ       :          0.0000000            0.0000000            0.0000000
 Quadrupole ZZ       :        -36.7056510           29.3009732           -7.4046777
 Traceless XX        :          9.6926804           -9.7669911           -0.0743107
 Traceless YY        :          9.6926804           -9.7669911           -0.0743107
 Traceless ZZ        :        -19.3853608           19.5339822            0.1486213

 ------------------------------------------------------------------------------------
  ==> Computing MBIS Charges <==

  Electron Count from Grid (Expected Number): 16.00000 (16.00000)
  Difference: -0.00000

  MBIS Charges: (a.u.)
   Center  Symbol  Z      Pop.       Charge
      1       O    8    7.999999    0.000001
      2       O    8    7.999999    0.000001

  MBIS Dipoles: [e a0]
   Center  Symbol  Z        X           Y           Z
      1       O    8   -0.000000    0.000000    0.016966
      2       O    8   -0.000000   -0.000000   -0.016966

  MBIS Quadrupoles: [e a0^2]
   Center  Symbol  Z      XX        XY        XZ        YY        YZ        ZZ
      1       O    8   -3.8138   -0.0000   -0.0000   -3.8138   -0.0000   -3.6564
      2       O    8   -3.8138   -0.0000    0.0000   -3.8138    0.0000   -3.6564

  MBIS Octupoles: [e a0^3]
   Center  Symbol  Z      XXX       XXY       XXZ       XYY       XYZ       XZZ       YYY       YYZ       YZZ       ZZZ
      1       O    8   -0.0000   -0.0000   -0.0152    0.0000   -0.0000   -0.0000    0.0000   -0.0152    0.0000   -0.3064
      2       O    8   -0.0000   -0.0000    0.0152   -0.0000    0.0000   -0.0000    0.0000    0.0152    0.0000    0.3064

  MBIS Radial Moments:
   Center  Symbol  Z      [a0^2]      [a0^3]      [a0^4]
      1       O    8   11.284030   21.232444   47.912395
      2       O    8   11.284030   21.232444   47.912395

  MBIS Valence Widths: [a0]
   Center  Symbol  Z     Width
      1       O    8    0.385724
      2       O    8    0.385724

*** tstop() called on Mac.lan at Sun Aug 10 17:01:56 2025
Module time:
	user time   =       3.53 seconds =       0.06 minutes
	system time =       2.29 seconds =       0.04 minutes
	total time  =          1 seconds =       0.02 minutes
Total time:
	user time   =      15.43 seconds =       0.26 minutes
	system time =       4.31 seconds =       0.07 minutes
	total time  =          2 seconds =       0.03 minutes

    Psi4 stopped on: Sunday, 10 August 2025 05:01PM
    Psi4 wall time for execution: 0:00:01.94

*** Psi4 exiting successfully. Buy a developer a beer!
