                               Psi4 1.9.1 release

  ==> Input File <==

--------------------------------------------------------------------------
molecule {
0 2
C           0.000000           0.000000           0.000000
H           0.000000           0.000000           1.541075
}

set {
basis              cc-pvtz
reference          uks
maxiter            500
DAMPING_PERCENTAGE 1
E_CONVERGENCE      1.0E-8
D_CONVERGENCE      1.0E-8
DIIS_MAX_VECS      400
MBIS_MAXITER       8000
guess              read
}

E, wfn = energy('b3lyp', restart_file='last_wfn', return_wfn=True)
properties('b3lyp','MBIS_CHARGES', wfn=wfn)
wfn.to_file('last_wfn')
--------------------------------------------------------------------------

    Molecular point group: c2v
  Charge       = 0
  Multiplicity = 2
  Basis Set: CC-PVTZ
    Blend: CC-PVTZ
  Basis Set: (CC-PVTZ AUX)
    Blend: CC-PVTZ-JKFIT
  @DF-UKS Final Energy:   -38.45348615490522
    Total Energy =                        -38.4534861549052209
 Dipole X            :          0.0000000            0.0000000            0.0000000
 Dipole Y            :          0.0000000            0.0000000            0.0000000
 Dipole Z            :         -1.1040330            1.3327769            0.2287440
 Magnitude           :                                                    0.2287440
    Molecular point group: c2v

    Geometry (in Angstrom), charge = 0, multiplicity = 2:

       Center              X                  Y                   Z               Mass
    ------------   -----------------  -----------------  -----------------  -----------------
         C            0.000000000000     0.000000000000    -0.119399973300    12.000000000000
         H            0.000000000000     0.000000000000     1.421675026700     1.007825032230

  Charge       = 0
  Multiplicity = 2
  Basis Set: CC-PVTZ
    Blend: CC-PVTZ
  Basis Set: (CC-PVTZ AUX)
    Blend: CC-PVTZ-JKFIT

    Orbital Energies [Eh]
    ---------------------

    Alpha Occupied:

       1A1   -10.323553     2A1    -0.598114     3A1    -0.313220
       1B1    -0.270214

    Alpha Virtual:

       1B2    -0.155814     4A1    -0.017825     5A1     0.258105
       2B1     0.283897     2B2     0.303192     6A1     0.313090
       7A1     0.447380     3B1     0.538646     3B2     0.540667
       1A2     0.651310     8A1     0.657031     9A1     0.832140
       4B1     0.915660     4B2     0.917116    10A1     1.188542
       5B1     1.889006     5B2     1.915919    11A1     2.079186
      12A1     2.439285     6B1     2.538539     6B2     2.541674
      13A1     2.593163     2A2     2.596585    14A1     2.601769
       7B1     2.631290     7B2     2.633902     3A2     2.874144
      15A1     2.886742     8B1     2.957782     8B2     2.974912
      16A1     3.193264     4A2     3.277885    17A1     3.278695
      18A1     3.592234     9B2     3.616462     9B1     3.618132
      10B2     3.918534    10B1     3.919441    19A1     4.110572
      20A1     5.366123

    Beta Occupied:

       1A1   -10.307768     2A1    -0.545808     3A1    -0.301650

    Beta Virtual:

       1B2    -0.139236     1B1    -0.091712     4A1    -0.008358
       5A1     0.257330     2B2     0.310492     6A1     0.321870
       2B1     0.339378     7A1     0.469380     3B2     0.540353
       3B1     0.557410     8A1     0.694230     1A2     0.694896
       9A1     0.843855     4B2     0.917830     4B1     0.937409
      10A1     1.192589     5B2     1.926691     5B1     1.970337
      11A1     2.091125    12A1     2.435129     6B2     2.545561
       6B1     2.576203    13A1     2.606407     2A2     2.632938
      14A1     2.640585     7B2     2.690162     7B1     2.690808
      15A1     2.950984     3A2     2.951690     8B2     2.982683
       8B1     3.026522    16A1     3.216762     4A2     3.277443
      17A1     3.278209     9B2     3.608279    18A1     3.611806
       9B1     3.615123    10B2     3.913416    10B1     3.925928
      19A1     4.106339    20A1     5.376941

    Final Occupation by Irrep:
             A1    A2    B1    B2
    DOCC [     3,    0,    0,    0 ]
    SOCC [     0,    0,    1,    0 ]
    NA   [     3,    0,    1,    0 ]
    NB   [     3,    0,    0,    0 ]

  @DF-UKS Final Energy:   -38.45348615414072

   => Energetics <=

    Nuclear Repulsion Energy =              2.0602912019337154
    One-Electron Energy =                 -55.1428888460177191
    Two-Electron Energy =                  19.0916456598906699
    DFT Exchange-Correlation Energy =      -4.4625341699473919
    Empirical Dispersion Energy =           0.0000000000000000
    VV10 Nonlocal Energy =                  0.0000000000000000
    Total Energy =                        -38.4534861541407196

  UHF NO Occupations:
  HONO-2 :    2 A1 1.9991584
  HONO-1 :    3 A1 1.9982299
  HONO-0 :    1 B1 1.0000000
  LUNO+0 :    4 A1 0.0017701
  LUNO+1 :    5 A1 0.0008416
  LUNO+2 :    6 A1 0.0000007
  LUNO+3 :    7 A1 0.0000000

Computation Completed

Properties will be evaluated at   0.000000,   0.000000,   0.000000 [a0]

Properties computed using the B3LYP density matrix

 Multipole Moments:

 ------------------------------------------------------------------------------------
     Multipole            Electronic (a.u.)      Nuclear  (a.u.)        Total (a.u.)
 ------------------------------------------------------------------------------------

 L = 1.  Multiply by 2.5417464519 to convert [e a0] to [Debye]
 Dipole X            :          0.0000000            0.0000000            0.0000000
 Dipole Y            :          0.0000000            0.0000000            0.0000000
 Dipole Z            :         -1.1040329            1.3327769            0.2287440
 Magnitude           :                                                    0.2287440

 L = 2.  Multiply by 1.3450342976 to convert [e a0^2] to [Debye ang]
 Quadrupole XX       :         -5.9658414            0.0000000           -5.9658414
 Quadrupole XY       :          0.0000000            0.0000000            0.0000000
 Quadrupole XZ       :          0.0000000            0.0000000            0.0000000
 Quadrupole YY       :         -4.5134312            0.0000000           -4.5134312
 Quadrupole YZ       :          0.0000000            0.0000000            0.0000000
 Quadrupole ZZ       :        -13.3422855            7.5231551           -5.8191304
 Traceless XX        :          1.9746780           -2.5077184           -0.5330404
 Traceless YY        :          3.4270882           -2.5077184            0.9193698
 Traceless ZZ        :         -5.4017662            5.0154368           -0.3863294

 ------------------------------------------------------------------------------------
  ==> Computing MBIS Charges <==

  Electron Count from Grid (Expected Number):  7.00000 ( 7.00000)
  Difference: -0.00000

  MBIS Charges: (a.u.)
   Center  Symbol  Z      Pop.       Charge
      1       C    6    5.986192    0.013808
      2       H    1    1.013808   -0.013808

  MBIS Dipoles: [e a0]
   Center  Symbol  Z        X           Y           Z
      1       C    6   -0.000000   -0.000000    0.181344
      2       H    1    0.000000    0.000000    0.087612

  MBIS Quadrupoles: [e a0^2]
   Center  Symbol  Z      XX        XY        XZ        YY        YZ        ZZ
      1       C    6   -5.0387    0.0000    0.0000   -3.6590    0.0000   -5.2134
      2       H    1   -0.9272   -0.0000   -0.0000   -0.8544    0.0000   -0.8957

  MBIS Octupoles: [e a0^3]
   Center  Symbol  Z      XXX       XXY       XXZ       XYY       XYZ       XZZ       YYY       YYZ       YZZ       ZZZ
      1       C    6   -0.0000   -0.0000    0.1951   -0.0000   -0.0000   -0.0000   -0.0000    0.1398   -0.0000    0.2226
      2       H    1   -0.0000    0.0000    0.0273   -0.0000   -0.0000   -0.0000    0.0000   -0.0539    0.0000    0.0707

  MBIS Radial Moments:
   Center  Symbol  Z      [a0^2]      [a0^3]      [a0^4]
      1       C    6   13.911052   34.541239   102.421334
      2       H    1    2.677308    6.213642   17.244521

  MBIS Valence Widths: [a0]
   Center  Symbol  Z     Width
      1       C    6    0.523895
      2       H    1    0.471775

*** tstop() called on Mac.lan at Sun Aug 10 17:09:42 2025
Module time:
	user time   =       2.94 seconds =       0.05 minutes
	system time =       1.95 seconds =       0.03 minutes
	total time  =          1 seconds =       0.02 minutes
Total time:
	user time   =      12.45 seconds =       0.21 minutes
	system time =       4.41 seconds =       0.07 minutes
	total time  =          2 seconds =       0.03 minutes

    Psi4 stopped on: Sunday, 10 August 2025 05:09PM
    Psi4 wall time for execution: 0:00:01.65

*** Psi4 exiting successfully. Buy a developer a beer!
