                               Psi4 1.9.1 release

  ==> Input File <==

--------------------------------------------------------------------------
molecule {
0 2
O           0.000000           0.000000           0.000000
N           0.000000           0.000000           0.729667
}

set {
basis              cc-pvtz
reference          uks
maxiter            500
DAMPING_PERCENTAGE 1
E_CONVERGENCE      1.0E-8
D_CONVERGENCE      1.0E-8
DIIS_MAX_VECS      400
MBIS_MAXITER       8000
guess              read
}

E, wfn = energy('b3lyp', restart_file='last_wfn', return_wfn=True)
properties('b3lyp','MBIS_CHARGES', wfn=wfn)
wfn.to_file('last_wfn')
--------------------------------------------------------------------------

    Molecular point group: c2v
  Charge       = 0
  Multiplicity = 2
  Basis Set: CC-PVTZ
    Blend: CC-PVTZ
  Basis Set: (CC-PVTZ AUX)
    Blend: CC-PVTZ-JKFIT
  @DF-UKS Final Energy:  -128.85029427963173
    Total Energy =                       -128.8502942796317257
 Dipole X            :          0.0000000            0.0000000            0.0000000
 Dipole Y            :          0.0000000            0.0000000            0.0000000
 Dipole Z            :         -0.5667028           -0.0027666           -0.5694694
 Magnitude           :                                                    0.5694694
    Molecular point group: c2v

    Geometry (in Angstrom), charge = 0, multiplicity = 2:

       Center              X                  Y                   Z               Mass
    ------------   -----------------  -----------------  -----------------  -----------------
         O            0.000000000000     0.000000000000    -0.340608869737    15.994914619570
         N            0.000000000000     0.000000000000     0.389058130263    14.003074004430

  Charge       = 0
  Multiplicity = 2
  Basis Set: CC-PVTZ
    Blend: CC-PVTZ
  Basis Set: (CC-PVTZ AUX)
    Blend: CC-PVTZ-JKFIT

    Orbital Energies [Eh]
    ---------------------

    Alpha Occupied:

       1A1   -19.271412     2A1   -14.402369     3A1    -1.593857
       1B1    -0.813428     1B2    -0.802898     4A1    -0.670113
       5A1    -0.502523     2B1     0.025155

    Alpha Virtual:

       2B2     0.119151     6A1     0.229126     3B1     0.339753
       3B2     0.340658     7A1     0.398023     8A1     0.528244
       4B1     0.628606     4B2     0.647235     1A2     0.877557
       9A1     0.879140    10A1     1.208752    11A1     1.350682
       5B1     1.375198     5B2     1.380676     2A2     1.659580
      12A1     1.661422    13A1     1.993541     6B1     2.028619
       6B2     2.032551     7B1     2.633427     7B2     2.638336
      14A1     3.071188    15A1     3.277409     8B1     3.674367
       8B2     3.674518    16A1     3.920915     3A2     3.963280
      17A1     3.965337     9B1     4.012394     9B2     4.017741
      10B1     4.327143    10B2     4.328088     4A2     4.349543
      18A1     4.352051    19A1     4.716599    11B1     5.105168
      11B2     5.105631    12B1     5.262851    12B2     5.262949
       5A2     6.053779    20A1     6.055300    21A1     6.161955
      13B2     6.706359    13B1     6.707700     6A2     6.846386
      22A1     6.847580    23A1     7.138135    24A1     8.420953
      14B1     8.754968    14B2     8.757592    25A1    10.587513
      26A1    25.823371

    Beta Occupied:

       1A1   -19.262274     2A1   -14.394813     3A1    -1.583334
       1B2    -0.795708     1B1    -0.762328     4A1    -0.646372
       5A1    -0.469224

    Beta Virtual:

       2B2     0.130844     2B1     0.161978     6A1     0.235758
       3B2     0.343801     3B1     0.363471     7A1     0.408351
       8A1     0.543333     4B2     0.654568     4B1     0.676542
       9A1     0.899208     1A2     0.899322    10A1     1.218571
      11A1     1.366010     5B2     1.384769     5B1     1.412804
       2A2     1.689591    12A1     1.689960    13A1     2.004502
       6B2     2.037654     6B1     2.060385     7B2     2.645063
       7B1     2.674718    14A1     3.091755    15A1     3.290143
       8B2     3.699352     8B1     3.699387    16A1     3.935215
       3A2     3.980213    17A1     3.981366     9B2     4.023665
       9B1     4.052204    10B2     4.332022    10B1     4.363050
      18A1     4.385970     4A2     4.385972    19A1     4.729156
      11B2     5.109802    11B1     5.137473    12B2     5.289185
      12B1     5.289203    20A1     6.085441     5A2     6.086815
      21A1     6.177282    13B2     6.709597    13B1     6.736256
       6A2     6.870387    22A1     6.870489    23A1     7.145102
      24A1     8.430666    14B2     8.763150    14B1     8.792690
      25A1    10.605623    26A1    25.835264

    Final Occupation by Irrep:
             A1    A2    B1    B2
    DOCC [     5,    0,    1,    1 ]
    SOCC [     0,    0,    1,    0 ]
    NA   [     5,    0,    2,    1 ]
    NB   [     5,    0,    1,    1 ]

  @DF-UKS Final Energy:  -128.85029427916098

   => Energetics <=

    Nuclear Repulsion Energy =             40.6129423387929052
    One-Electron Energy =                -253.6440070624882992
    Two-Electron Energy =                  97.1992609149607318
    DFT Exchange-Correlation Energy =     -13.0184904704262987
    Empirical Dispersion Energy =           0.0000000000000000
    VV10 Nonlocal Energy =                  0.0000000000000000
    Total Energy =                       -128.8502942791609769

  UHF NO Occupations:
  HONO-2 :    1 B1 1.9998764
  HONO-1 :    5 A1 1.9997787
  HONO-0 :    2 B1 1.0000000
  LUNO+0 :    6 A1 0.0002213
  LUNO+1 :    3 B1 0.0001236
  LUNO+2 :    7 A1 0.0000672
  LUNO+3 :    2 B2 0.0000075

Computation Completed

Properties will be evaluated at   0.000000,   0.000000,   0.000000 [a0]

Properties computed using the B3LYP density matrix

 Multipole Moments:

 ------------------------------------------------------------------------------------
     Multipole            Electronic (a.u.)      Nuclear  (a.u.)        Total (a.u.)
 ------------------------------------------------------------------------------------

 L = 1.  Multiply by 2.5417464519 to convert [e a0] to [Debye]
 Dipole X            :          0.0000000            0.0000000            0.0000000
 Dipole Y            :          0.0000000            0.0000000            0.0000000
 Dipole Z            :         -0.5667028           -0.0027666           -0.5694694
 Magnitude           :                                                    0.5694694

 L = 2.  Multiply by 1.3450342976 to convert [e a0^2] to [Debye ang]
 Quadrupole XX       :         -7.7379888            0.0000000           -7.7379888
 Quadrupole XY       :          0.0000000            0.0000000            0.0000000
 Quadrupole XZ       :          0.0000000            0.0000000            0.0000000
 Quadrupole YY       :         -6.2932265            0.0000000           -6.2932265
 Quadrupole YZ       :          0.0000000            0.0000000            0.0000000
 Quadrupole ZZ       :        -15.6959895            7.0981299           -8.5978596
 Traceless XX        :          2.1710795           -2.3660433           -0.1949638
 Traceless YY        :          3.6158417           -2.3660433            1.2497984
 Traceless ZZ        :         -5.7869212            4.7320866           -1.0548346

 ------------------------------------------------------------------------------------
  ==> Computing MBIS Charges <==

  Electron Count from Grid (Expected Number): 15.00000 (15.00000)
  Difference:  0.00000

  MBIS Charges: (a.u.)
   Center  Symbol  Z      Pop.       Charge
      1       O    8    7.692202    0.307798
      2       N    7    7.307800   -0.307800

  MBIS Dipoles: [e a0]
   Center  Symbol  Z        X           Y           Z
      1       O    8   -0.000000    0.000000    0.118035
      2       N    7    0.000000   -0.000000   -0.263089

  MBIS Quadrupoles: [e a0^2]
   Center  Symbol  Z      XX        XY        XZ        YY        YZ        ZZ
      1       O    8   -2.8769    0.0000    0.0000   -2.5853   -0.0000   -3.2382
      2       N    7   -4.8611   -0.0000    0.0000   -3.7080    0.0000   -4.7820

  MBIS Octupoles: [e a0^3]
   Center  Symbol  Z      XXX       XXY       XXZ       XYY       XYZ       XZZ       YYY       YYZ       YZZ       ZZZ
      1       O    8   -0.0000   -0.0000    0.2247   -0.0000    0.0000   -0.0000   -0.0000    0.1609    0.0000    0.4312
      2       N    7   -0.0000    0.0000   -1.2297    0.0000   -0.0000    0.0000   -0.0000   -0.3970    0.0000   -0.3805

  MBIS Radial Moments:
   Center  Symbol  Z      [a0^2]      [a0^3]      [a0^4]
      1       O    8    8.700283   14.774860   30.494026
      2       N    7   13.351133   29.824416   80.291963

  MBIS Valence Widths: [a0]
   Center  Symbol  Z     Width
      1       O    8    0.343942
      2       N    7    0.441367

*** tstop() called on Mac.lan at Sun Aug 10 17:20:27 2025
Module time:
	user time   =       3.73 seconds =       0.06 minutes
	system time =       2.41 seconds =       0.04 minutes
	total time  =          0 seconds =       0.00 minutes
Total time:
	user time   =      19.25 seconds =       0.32 minutes
	system time =       4.90 seconds =       0.08 minutes
	total time  =          2 seconds =       0.03 minutes

    Psi4 stopped on: Sunday, 10 August 2025 05:20PM
    Psi4 wall time for execution: 0:00:02.33

*** Psi4 exiting successfully. Buy a developer a beer!
