                               Psi4 1.9.1 release

  ==> Input File <==

--------------------------------------------------------------------------
molecule {
0 2
N           0.000000           0.000000           0.000000
C           0.000000           0.000000           1.637388
}

set {
basis              cc-pvtz
reference          uks
maxiter            500
DAMPING_PERCENTAGE 1
E_CONVERGENCE      1.0E-8
D_CONVERGENCE      1.0E-8
DIIS_MAX_VECS      400
MBIS_MAXITER       8000
guess              read
}

E, wfn = energy('b3lyp', restart_file='last_wfn', return_wfn=True)
properties('b3lyp','MBIS_CHARGES', wfn=wfn)
wfn.to_file('last_wfn')
--------------------------------------------------------------------------

    Molecular point group: c2v
  Charge       = 0
  Multiplicity = 2
  Basis Set: CC-PVTZ
    Blend: CC-PVTZ
  Basis Set: (CC-PVTZ AUX)
    Blend: CC-PVTZ-JKFIT
  @DF-UKS Final Energy:   -92.57059529841888
    Total Energy =                        -92.5705952984188798
 Dipole X            :          0.0000000            0.0000000            0.0000000
 Dipole Y            :          0.0000000            0.0000000            0.0000000
 Dipole Z            :          0.4109898            0.0021947            0.4131846
 Magnitude           :                                                    0.4131846
    Molecular point group: c2v

    Geometry (in Angstrom), charge = 0, multiplicity = 2:

       Center              X                  Y                   Z               Mass
    ------------   -----------------  -----------------  -----------------  -----------------
         N            0.000000000000     0.000000000000    -0.755628199829    14.003074004430
         C            0.000000000000     0.000000000000     0.881759800171    12.000000000000

  Charge       = 0
  Multiplicity = 2
  Basis Set: CC-PVTZ
    Blend: CC-PVTZ
  Basis Set: (CC-PVTZ AUX)
    Blend: CC-PVTZ-JKFIT

    Orbital Energies [Eh]
    ---------------------

    Alpha Occupied:

       1A1   -14.457409     2A1   -10.386105     3A1    -0.826718
       4A1    -0.577729     5A1    -0.399423     1B1    -0.325394
       1B2    -0.325394

    Alpha Virtual:

       2B1    -0.138024     2B2    -0.138024     6A1     0.047812
       7A1     0.256847     3B2     0.292939     3B1     0.292939
       8A1     0.319484     9A1     0.433661     4B2     0.492903
       4B1     0.492903     1A2     0.631965    10A1     0.631965
       5B1     0.683353     5B2     0.683353    11A1     0.847204
      12A1     1.006998    13A1     1.067336     2A2     1.067337
       6B1     1.311447     6B2     1.311447    14A1     1.486211
       7B1     1.920625     7B2     1.920625    15A1     2.149267
       8B2     2.573107     8B1     2.573107     3A2     2.607936
      16A1     2.607936     9B2     2.625330     9B1     2.625330
      17A1     2.638203    18A1     2.882181     4A2     2.882185
      10B2     2.899785    10B1     2.899785    19A1     3.063317
      11B1     3.085260    11B2     3.085260    20A1     3.253215
      12B1     3.867028    12B2     3.867028    21A1     3.925223
      22A1     3.939964     5A2     3.939966    13B2     4.241541
      13B1     4.241541     6A2     4.423657    23A1     4.423665
      24A1     4.566944    14B1     4.751152    14B2     4.751152
      25A1     5.485216    26A1     6.587446

    Beta Occupied:

       1A1   -14.448306     2A1   -10.376531     3A1    -0.794505
       4A1    -0.519832     1B1    -0.317934     1B2    -0.317934

    Beta Virtual:

       5A1    -0.246283     2B1    -0.124313     2B2    -0.124313
       6A1     0.090259     7A1     0.291173     3B2     0.298139
       3B1     0.298139     8A1     0.341222     9A1     0.460652
       4B2     0.495089     4B1     0.495089    10A1     0.637252
       1A2     0.637252     5B1     0.709609     5B2     0.709609
      11A1     0.859247    12A1     1.044101    13A1     1.067455
       2A2     1.067455     6B1     1.337229     6B2     1.337229
      14A1     1.522339     7B1     1.930321     7B2     1.930321
      15A1     2.194789     8B2     2.597038     8B1     2.597038
       3A2     2.630481    16A1     2.630481     9B2     2.631311
       9B1     2.631311    17A1     2.683806    18A1     2.893004
       4A2     2.893008    10B2     2.918289    10B1     2.918289
      19A1     3.122942    11B1     3.125265    11B2     3.125265
      20A1     3.291601    12B1     3.862873    12B2     3.862873
      21A1     3.957316     5A2     3.957317    22A1     3.960016
      13B2     4.274428    13B1     4.274428     6A2     4.423657
      23A1     4.423665    24A1     4.632528    14B1     4.796292
      14B2     4.796292    25A1     5.518894    26A1     6.608700

    Final Occupation by Irrep:
             A1    A2    B1    B2
    DOCC [     4,    0,    1,    1 ]
    SOCC [     1,    0,    0,    0 ]
    NA   [     5,    0,    1,    1 ]
    NB   [     4,    0,    1,    1 ]

  @DF-UKS Final Energy:   -92.57059529512175

   => Energetics <=

    Nuclear Repulsion Energy =             13.5737179264413808
    One-Electron Energy =                -151.2951168613392952
    Two-Electron Energy =                  54.7464279756051084
    DFT Exchange-Correlation Energy =      -9.5956243358289477
    Empirical Dispersion Energy =           0.0000000000000000
    VV10 Nonlocal Energy =                  0.0000000000000000
    Total Energy =                        -92.5705952951217341

  UHF NO Occupations:
  HONO-2 :    1 B2 1.9991164
  HONO-1 :    4 A1 1.9960146
  HONO-0 :    5 A1 1.0000000
  LUNO+0 :    6 A1 0.0039854
  LUNO+1 :    2 B2 0.0008836
  LUNO+2 :    2 B1 0.0008836
  LUNO+3 :    7 A1 0.0002853

Computation Completed

Properties will be evaluated at   0.000000,   0.000000,   0.000000 [a0]

Properties computed using the B3LYP density matrix

 Multipole Moments:

 ------------------------------------------------------------------------------------
     Multipole            Electronic (a.u.)      Nuclear  (a.u.)        Total (a.u.)
 ------------------------------------------------------------------------------------

 L = 1.  Multiply by 2.5417464519 to convert [e a0] to [Debye]
 Dipole X            :          0.0000000            0.0000000            0.0000000
 Dipole Y            :          0.0000000            0.0000000            0.0000000
 Dipole Z            :          0.4109902            0.0021947            0.4131850
 Magnitude           :                                                    0.4131850

 L = 2.  Multiply by 1.3450342976 to convert [e a0^2] to [Debye ang]
 Quadrupole XX       :         -9.0621850            0.0000000           -9.0621850
 Quadrupole XY       :          0.0000000            0.0000000            0.0000000
 Quadrupole XZ       :          0.0000000            0.0000000            0.0000000
 Quadrupole YY       :         -9.0621850            0.0000000           -9.0621850
 Quadrupole YZ       :          0.0000000            0.0000000            0.0000000
 Quadrupole ZZ       :        -38.2454383           30.9319204           -7.3135178
 Traceless XX        :          9.7277511          -10.3106401           -0.5828891
 Traceless YY        :          9.7277511          -10.3106401           -0.5828891
 Traceless ZZ        :        -19.4555022           20.6212803            1.1657781

 ------------------------------------------------------------------------------------
  ==> Computing MBIS Charges <==

  Electron Count from Grid (Expected Number): 13.00000 (13.00000)
  Difference: -0.00000

  MBIS Charges: (a.u.)
   Center  Symbol  Z      Pop.       Charge
      1       N    7    7.172050   -0.172050
      2       C    6    5.827949    0.172051

  MBIS Dipoles: [e a0]
   Center  Symbol  Z        X           Y           Z
      1       N    7   -0.000000   -0.000000   -0.284434
      2       C    6   -0.000000    0.000000    0.165258

  MBIS Quadrupoles: [e a0^2]
   Center  Symbol  Z      XX        XY        XZ        YY        YZ        ZZ
      1       N    7   -4.6303    0.0000   -0.0000   -4.6303    0.0000   -4.3772
      2       C    6   -4.4318    0.0000    0.0000   -4.4318    0.0000   -4.4262

  MBIS Octupoles: [e a0^3]
   Center  Symbol  Z      XXX       XXY       XXZ       XYY       XYZ       XZZ       YYY       YYZ       YZZ       ZZZ
      1       N    7   -0.0000   -0.0000   -0.4677   -0.0000    0.0000   -0.0000   -0.0000   -0.4677    0.0000   -1.2619
      2       C    6   -0.0000   -0.0000    0.4777   -0.0000   -0.0000   -0.0000    0.0000    0.4777    0.0000    1.0601

  MBIS Radial Moments:
   Center  Symbol  Z      [a0^2]      [a0^3]      [a0^4]
      1       N    7   13.637891   29.976899   78.439209
      2       C    6   13.289926   32.762666   95.912380

  MBIS Valence Widths: [a0]
   Center  Symbol  Z     Width
      1       N    7    0.457486
      2       C    6    0.522110

*** tstop() called on Mac.lan at Sun Aug 10 17:15:50 2025
Module time:
	user time   =       3.91 seconds =       0.07 minutes
	system time =       1.93 seconds =       0.03 minutes
	total time  =          1 seconds =       0.02 minutes
Total time:
	user time   =      21.76 seconds =       0.36 minutes
	system time =       4.50 seconds =       0.07 minutes
	total time  =          3 seconds =       0.05 minutes

    Psi4 stopped on: Sunday, 10 August 2025 05:15PM
    Psi4 wall time for execution: 0:00:02.54

*** Psi4 exiting successfully. Buy a developer a beer!
