                               Psi4 1.9.1 release

  ==> Input File <==

--------------------------------------------------------------------------
molecule {
0 1
O           0.000000           0.000000           0.000000
C           0.000000           0.000000           0.965255
}

set {
basis              cc-pvtz
reference          uks
maxiter            500
DAMPING_PERCENTAGE 1
E_CONVERGENCE      1.0E-8
D_CONVERGENCE      1.0E-8
DIIS_MAX_VECS      400
MBIS_MAXITER       8000
guess              read
}

E, wfn = energy('b3lyp', restart_file='last_wfn', return_wfn=True)
properties('b3lyp','MBIS_CHARGES', wfn=wfn)
wfn.to_file('last_wfn')
--------------------------------------------------------------------------

    Molecular point group: c2v
  Charge       = 0
  Multiplicity = 1
  Basis Set: CC-PVTZ
    Blend: CC-PVTZ
  Basis Set: (CC-PVTZ AUX)
    Blend: CC-PVTZ-JKFIT
  @DF-UKS Final Energy:  -113.26999679495033
    Total Energy =                       -113.2699967949503304
 Dipole X            :          0.0000000            0.0000000            0.0000000
 Dipole Y            :          0.0000000            0.0000000            0.0000000
 Dipole Z            :         -0.2578728           -0.0019881           -0.2598608
 Magnitude           :                                                    0.2598608
    Molecular point group: c2v

    Geometry (in Angstrom), charge = 0, multiplicity = 1:

       Center              X                  Y                   Z               Mass
    ------------   -----------------  -----------------  -----------------  -----------------
         O            0.000000000000     0.000000000000    -0.413755860927    15.994914619570
         C            0.000000000000     0.000000000000     0.551499139073    12.000000000000

  Charge       = 0
  Multiplicity = 1
  Basis Set: CC-PVTZ
    Blend: CC-PVTZ
  Basis Set: (CC-PVTZ AUX)
    Blend: CC-PVTZ-JKFIT

    Orbital Energies [Eh]
    ---------------------

    Alpha Occupied:

       1A1   -19.225596     2A1   -10.234019     3A1    -1.260856
       4A1    -0.583456     1B1    -0.546486     1B2    -0.546486
       5A1    -0.365393

    Alpha Virtual:

       2B1     0.034573     2B2     0.034573     6A1     0.162682
       3B2     0.288749     3B1     0.288749     7A1     0.304712
       8A1     0.534797     4B1     0.606066     4B2     0.606066
       1A2     0.633233     9A1     0.633233    10A1     0.767274
       5B2     0.925226     5B1     0.925226    11A1     1.164543
       2A2     1.538177    12A1     1.538177    13A1     1.583379
       6B2     1.874003     6B1     1.874003    14A1     1.905158
       7B2     2.012474     7B1     2.012474    15A1     2.624180
       8B1     2.633952     8B2     2.633952    16A1     2.882471
       3A2     2.882471     4A2     2.975044    17A1     2.975044
       9B2     2.996239     9B1     2.996239    18A1     3.072274
      10B1     3.407294    10B2     3.407294    19A1     3.627622
      11B2     4.213038    11B1     4.213038    20A1     5.023611
      12B2     5.098022    12B1     5.098022     5A2     5.742521
      21A1     5.742521    22A1     6.202876     6A2     6.243164
      23A1     6.243171    13B2     6.554874    13B1     6.554874
      14B2     6.827517    14B1     6.827517    24A1     6.909060
      25A1     8.077499    26A1    14.545465

    Beta Occupied:

       1A1   -19.225596     2A1   -10.234019     3A1    -1.260856
       4A1    -0.583456     1B1    -0.546486     1B2    -0.546486
       5A1    -0.365393

    Beta Virtual:

       2B1     0.034573     2B2     0.034573     6A1     0.162682
       3B2     0.288749     3B1     0.288749     7A1     0.304712
       8A1     0.534797     4B1     0.606066     4B2     0.606066
       1A2     0.633233     9A1     0.633233    10A1     0.767274
       5B2     0.925226     5B1     0.925226    11A1     1.164543
       2A2     1.538177    12A1     1.538177    13A1     1.583379
       6B2     1.874003     6B1     1.874003    14A1     1.905158
       7B2     2.012474     7B1     2.012474    15A1     2.624180
       8B1     2.633952     8B2     2.633952    16A1     2.882471
       3A2     2.882471     4A2     2.975044    17A1     2.975044
       9B2     2.996239     9B1     2.996239    18A1     3.072274
      10B1     3.407294    10B2     3.407294    19A1     3.627622
      11B2     4.213038    11B1     4.213038    20A1     5.023611
      12B2     5.098022    12B1     5.098022     5A2     5.742521
      21A1     5.742521    22A1     6.202876     6A2     6.243164
      23A1     6.243171    13B2     6.554874    13B1     6.554874
      14B2     6.827517    14B1     6.827517    24A1     6.909060
      25A1     8.077499    26A1    14.545465

    Final Occupation by Irrep:
             A1    A2    B1    B2
    DOCC [     5,    0,    1,    1 ]
    SOCC [     0,    0,    0,    0 ]
    NA   [     5,    0,    1,    1 ]
    NB   [     5,    0,    1,    1 ]

  @DF-UKS Final Energy:  -113.26999679490920

   => Energetics <=

    Nuclear Repulsion Energy =             26.3148143362738409
    One-Electron Energy =                -205.4489113052504194
    Two-Electron Energy =                  77.2671210384525011
    DFT Exchange-Correlation Energy =     -11.4030208643851427
    Empirical Dispersion Energy =           0.0000000000000000
    VV10 Nonlocal Energy =                  0.0000000000000000
    Total Energy =                       -113.2699967949092041

  UHF NO Occupations:
  HONO-2 :    5 A1 2.0000000
  HONO-1 :    1 B1 2.0000000
  HONO-0 :    1 B2 2.0000000
  LUNO+0 :    6 A1 0.0000000
  LUNO+1 :    7 A1 0.0000000
  LUNO+2 :    8 A1 0.0000000
  LUNO+3 :    9 A1 0.0000000

Computation Completed

Properties will be evaluated at   0.000000,   0.000000,   0.000000 [a0]

Properties computed using the B3LYP density matrix

 Multipole Moments:

 ------------------------------------------------------------------------------------
     Multipole            Electronic (a.u.)      Nuclear  (a.u.)        Total (a.u.)
 ------------------------------------------------------------------------------------

 L = 1.  Multiply by 2.5417464519 to convert [e a0] to [Debye]
 Dipole X            :          0.0000000            0.0000000            0.0000000
 Dipole Y            :          0.0000000            0.0000000            0.0000000
 Dipole Z            :         -0.2578728           -0.0019881           -0.2598608
 Magnitude           :                                                    0.2598608

 L = 2.  Multiply by 1.3450342976 to convert [e a0^2] to [Debye ang]
 Quadrupole XX       :         -7.2690796            0.0000000           -7.2690796
 Quadrupole XY       :          0.0000000            0.0000000            0.0000000
 Quadrupole XZ       :          0.0000000            0.0000000            0.0000000
 Quadrupole YY       :         -7.2690796            0.0000000           -7.2690796
 Quadrupole YZ       :          0.0000000            0.0000000            0.0000000
 Quadrupole ZZ       :        -20.4032183           11.4076205           -8.9955978
 Traceless XX        :          4.3780463           -3.8025402            0.5755061
 Traceless YY        :          4.3780463           -3.8025402            0.5755061
 Traceless ZZ        :         -8.7560925            7.6050804           -1.1510121

 ------------------------------------------------------------------------------------
  ==> Computing MBIS Charges <==

  Electron Count from Grid (Expected Number): 14.00000 (14.00000)
  Difference:  0.00000

  MBIS Charges: (a.u.)
   Center  Symbol  Z      Pop.       Charge
      1       O    8    8.036475   -0.036475
      2       C    6    5.963525    0.036475

  MBIS Dipoles: [e a0]
   Center  Symbol  Z        X           Y           Z
      1       O    8   -0.000000    0.000000   -0.028523
      2       C    6   -0.000000    0.000000   -0.297871

  MBIS Quadrupoles: [e a0^2]
   Center  Symbol  Z      XX        XY        XZ        YY        YZ        ZZ
      1       O    8   -3.3203    0.0000    0.0000   -3.3203   -0.0000   -3.6247
      2       C    6   -3.9488    0.0000   -0.0000   -3.9488    0.0000   -4.8119

  MBIS Octupoles: [e a0^3]
   Center  Symbol  Z      XXX       XXY       XXZ       XYY       XYZ       XZZ       YYY       YYZ       YZZ       ZZZ
      1       O    8    0.0000    0.0000    0.0456   -0.0000   -0.0000   -0.0000   -0.0000    0.0456    0.0000    0.0901
      2       C    6   -0.0000    0.0000   -0.3926   -0.0000    0.0000   -0.0000    0.0000   -0.3926    0.0000   -1.1185

  MBIS Radial Moments:
   Center  Symbol  Z      [a0^2]      [a0^3]      [a0^4]
      1       O    8   10.265365   18.184869   38.704178
      2       C    6   12.709442   30.240944   85.388429

  MBIS Valence Widths: [a0]
   Center  Symbol  Z     Width
      1       O    8    0.366214
      2       C    6    0.499359

*** tstop() called on Mac.lan at Sun Aug 10 17:16:52 2025
Module time:
	user time   =       3.86 seconds =       0.06 minutes
	system time =       1.79 seconds =       0.03 minutes
	total time  =          1 seconds =       0.02 minutes
Total time:
	user time   =      17.10 seconds =       0.28 minutes
	system time =       3.78 seconds =       0.06 minutes
	total time  =          2 seconds =       0.03 minutes

    Psi4 stopped on: Sunday, 10 August 2025 05:16PM
    Psi4 wall time for execution: 0:00:02.02

*** Psi4 exiting successfully. Buy a developer a beer!
