                               Psi4 1.9.1 release

  ==> Input File <==

--------------------------------------------------------------------------
molecule {
0 1
O           0.000000           0.000000           0.000000
C           0.000000           0.000000           0.861834
}

set {
basis              cc-pvtz
reference          uks
maxiter            500
DAMPING_PERCENTAGE 1
E_CONVERGENCE      1.0E-8
D_CONVERGENCE      1.0E-8
DIIS_MAX_VECS      400
MBIS_MAXITER       8000
guess              read
}

E, wfn = energy('b3lyp', restart_file='last_wfn', return_wfn=True)
properties('b3lyp','MBIS_CHARGES', wfn=wfn)
wfn.to_file('last_wfn')
--------------------------------------------------------------------------

    Molecular point group: c2v
  Charge       = 0
  Multiplicity = 1
  Basis Set: CC-PVTZ
    Blend: CC-PVTZ
  Basis Set: (CC-PVTZ AUX)
    Blend: CC-PVTZ-JKFIT
  @DF-UKS Final Energy:  -113.04629062465503
    Total Energy =                       -113.0462906246550290
 Dipole X            :          0.0000000            0.0000000            0.0000000
 Dipole Y            :          0.0000000            0.0000000            0.0000000
 Dipole Z            :         -0.3782962           -0.0017751           -0.3800713
 Magnitude           :                                                    0.3800713
    Molecular point group: c2v

    Geometry (in Angstrom), charge = 0, multiplicity = 1:

       Center              X                  Y                   Z               Mass
    ------------   -----------------  -----------------  -----------------  -----------------
         O            0.000000000000     0.000000000000    -0.369424523723    15.994914619570
         C            0.000000000000     0.000000000000     0.492409476277    12.000000000000

  Charge       = 0
  Multiplicity = 1
  Basis Set: CC-PVTZ
    Blend: CC-PVTZ
  Basis Set: (CC-PVTZ AUX)
    Blend: CC-PVTZ-JKFIT

    Orbital Energies [Eh]
    ---------------------

    Alpha Occupied:

       1A1   -19.212365     2A1   -10.201092     3A1    -1.306160
       1B2    -0.598111     1B1    -0.598111     4A1    -0.582141
       5A1    -0.351409

    Alpha Virtual:

       2B2     0.080666     2B1     0.080666     6A1     0.166465
       3B2     0.294750     3B1     0.294750     7A1     0.305146
       8A1     0.537197     4B2     0.605765     4B1     0.605765
       1A2     0.633539     9A1     0.633539    10A1     0.829006
       5B2     0.977869     5B1     0.977869    11A1     1.225357
      12A1     1.573688     2A2     1.573688    13A1     1.757107
       6B2     1.758584     6B1     1.758584    14A1     2.000614
       7B1     2.129738     7B2     2.129738     8B2     2.634866
       8B1     2.634866    15A1     2.700959     3A2     2.894526
      16A1     2.894526     9B1     3.027453     9B2     3.027453
       4A2     3.046811    17A1     3.046811    18A1     3.113054
      10B2     3.604935    10B1     3.604935    19A1     3.887464
      11B2     4.256421    11B1     4.256421    12B1     5.144148
      12B2     5.144148    20A1     5.429067     5A2     5.974630
      21A1     5.974631     6A2     6.261168    22A1     6.261169
      23A1     6.327291    13B2     6.510308    13B1     6.510308
      24A1     7.024875    14B1     7.175300    14B2     7.175300
      25A1     9.051199    26A1    15.857581

    Beta Occupied:

       1A1   -19.212365     2A1   -10.201092     3A1    -1.306160
       1B2    -0.598111     1B1    -0.598111     4A1    -0.582141
       5A1    -0.351409

    Beta Virtual:

       2B2     0.080666     2B1     0.080666     6A1     0.166465
       3B2     0.294750     3B1     0.294750     7A1     0.305146
       8A1     0.537197     4B2     0.605765     4B1     0.605765
       1A2     0.633539     9A1     0.633539    10A1     0.829006
       5B2     0.977869     5B1     0.977869    11A1     1.225357
      12A1     1.573688     2A2     1.573688    13A1     1.757107
       6B2     1.758584     6B1     1.758584    14A1     2.000614
       7B1     2.129738     7B2     2.129738     8B2     2.634866
       8B1     2.634866    15A1     2.700959     3A2     2.894526
      16A1     2.894526     9B1     3.027453     9B2     3.027453
       4A2     3.046811    17A1     3.046811    18A1     3.113054
      10B2     3.604935    10B1     3.604935    19A1     3.887464
      11B2     4.256421    11B1     4.256421    12B1     5.144148
      12B2     5.144148    20A1     5.429067     5A2     5.974630
      21A1     5.974631     6A2     6.261168    22A1     6.261169
      23A1     6.327291    13B2     6.510308    13B1     6.510308
      24A1     7.024875    14B1     7.175300    14B2     7.175300
      25A1     9.051199    26A1    15.857581

    Final Occupation by Irrep:
             A1    A2    B1    B2
    DOCC [     5,    0,    1,    1 ]
    SOCC [     0,    0,    0,    0 ]
    NA   [     5,    0,    1,    1 ]
    NB   [     5,    0,    1,    1 ]

  @DF-UKS Final Energy:  -113.04629062457812

   => Energetics <=

    Nuclear Repulsion Energy =             29.4726201474529965
    One-Electron Energy =                -211.0400530611746603
    Two-Electron Energy =                  80.0736567558151791
    DFT Exchange-Correlation Energy =     -11.5525144666716351
    Empirical Dispersion Energy =           0.0000000000000000
    VV10 Nonlocal Energy =                  0.0000000000000000
    Total Energy =                       -113.0462906245781198

  UHF NO Occupations:
  HONO-2 :    3 A1 2.0000000
  HONO-1 :    4 A1 2.0000000
  HONO-0 :    5 A1 2.0000000
  LUNO+0 :    6 A1 0.0000000
  LUNO+1 :    7 A1 0.0000000
  LUNO+2 :    8 A1 0.0000000
  LUNO+3 :    9 A1 0.0000000

Computation Completed

Properties will be evaluated at   0.000000,   0.000000,   0.000000 [a0]

Properties computed using the B3LYP density matrix

 Multipole Moments:

 ------------------------------------------------------------------------------------
     Multipole            Electronic (a.u.)      Nuclear  (a.u.)        Total (a.u.)
 ------------------------------------------------------------------------------------

 L = 1.  Multiply by 2.5417464519 to convert [e a0] to [Debye]
 Dipole X            :          0.0000000            0.0000000            0.0000000
 Dipole Y            :          0.0000000            0.0000000            0.0000000
 Dipole Z            :         -0.3782962           -0.0017751           -0.3800713
 Magnitude           :                                                    0.3800713

 L = 2.  Multiply by 1.3450342976 to convert [e a0^2] to [Debye ang]
 Quadrupole XX       :         -7.0322766            0.0000000           -7.0322766
 Quadrupole XY       :          0.0000000            0.0000000            0.0000000
 Quadrupole XZ       :          0.0000000            0.0000000            0.0000000
 Quadrupole YY       :         -7.0322766            0.0000000           -7.0322766
 Quadrupole YZ       :          0.0000000            0.0000000            0.0000000
 Quadrupole ZZ       :        -17.9629692            9.0940679           -8.8689013
 Traceless XX        :          3.6435642           -3.0313560            0.6122082
 Traceless YY        :          3.6435642           -3.0313560            0.6122082
 Traceless ZZ        :         -7.2871284            6.0627119           -1.2244164

 ------------------------------------------------------------------------------------
  ==> Computing MBIS Charges <==

  Electron Count from Grid (Expected Number): 14.00000 (14.00000)
  Difference: -0.00000

  MBIS Charges: (a.u.)
   Center  Symbol  Z      Pop.       Charge
      1       O    8    7.964948    0.035052
      2       C    6    6.035051   -0.035051

  MBIS Dipoles: [e a0]
   Center  Symbol  Z        X           Y           Z
      1       O    8   -0.000000   -0.000000   -0.017670
      2       C    6   -0.000000    0.000000   -0.305316

  MBIS Quadrupoles: [e a0^2]
   Center  Symbol  Z      XX        XY        XZ        YY        YZ        ZZ
      1       O    8   -3.1064   -0.0000    0.0000   -3.1064   -0.0000   -3.4715
      2       C    6   -3.9259    0.0000    0.0000   -3.9259    0.0000   -4.8406

  MBIS Octupoles: [e a0^3]
   Center  Symbol  Z      XXX       XXY       XXZ       XYY       XYZ       XZZ       YYY       YYZ       YZZ       ZZZ
      1       O    8    0.0000   -0.0000    0.0560   -0.0000   -0.0000    0.0000   -0.0000    0.0560    0.0000    0.1845
      2       C    6   -0.0000    0.0000   -0.4896   -0.0000    0.0000    0.0000    0.0000   -0.4896    0.0000   -1.3154

  MBIS Radial Moments:
   Center  Symbol  Z      [a0^2]      [a0^3]      [a0^4]
      1       O    8    9.684215   16.746027   34.831122
      2       C    6   12.692438   30.100241   84.822092

  MBIS Valence Widths: [a0]
   Center  Symbol  Z     Width
      1       O    8    0.357018
      2       C    6    0.493708

*** tstop() called on Mac.lan at Sun Aug 10 17:17:05 2025
Module time:
	user time   =       3.83 seconds =       0.06 minutes
	system time =       2.64 seconds =       0.04 minutes
	total time  =          1 seconds =       0.02 minutes
Total time:
	user time   =      16.97 seconds =       0.28 minutes
	system time =       4.50 seconds =       0.07 minutes
	total time  =          2 seconds =       0.03 minutes

    Psi4 stopped on: Sunday, 10 August 2025 05:17PM
    Psi4 wall time for execution: 0:00:02.08

*** Psi4 exiting successfully. Buy a developer a beer!
