                               Psi4 1.9.1 release

  ==> Input File <==

--------------------------------------------------------------------------
molecule {
0 1
O           0.000000           0.000000           0.000000
C           0.000000           0.000000           1.234147
}

set {
basis              cc-pvtz
reference          uks
maxiter            500
DAMPING_PERCENTAGE 1
E_CONVERGENCE      1.0E-8
D_CONVERGENCE      1.0E-8
DIIS_MAX_VECS      400
MBIS_MAXITER       8000
guess              read
}

E, wfn = energy('b3lyp', restart_file='last_wfn', return_wfn=True)
properties('b3lyp','MBIS_CHARGES', wfn=wfn)
wfn.to_file('last_wfn')
--------------------------------------------------------------------------

    Molecular point group: c2v
  Charge       = 0
  Multiplicity = 1
  Basis Set: CC-PVTZ
    Blend: CC-PVTZ
  Basis Set: (CC-PVTZ AUX)
    Blend: CC-PVTZ-JKFIT
  @DF-UKS Final Energy:  -113.33653649812715
    Total Energy =                       -113.3365364981271455
 Dipole X            :          0.0000000            0.0000000            0.0000000
 Dipole Y            :          0.0000000            0.0000000            0.0000000
 Dipole Z            :          0.1033350           -0.0025419            0.1007931
 Magnitude           :                                                    0.1007931
    Molecular point group: c2v

    Geometry (in Angstrom), charge = 0, multiplicity = 1:

       Center              X                  Y                   Z               Mass
    ------------   -----------------  -----------------  -----------------  -----------------
         O            0.000000000000     0.000000000000    -0.529016223170    15.994914619570
         C            0.000000000000     0.000000000000     0.705130776830    12.000000000000

  Charge       = 0
  Multiplicity = 1
  Basis Set: CC-PVTZ
    Blend: CC-PVTZ
  Basis Set: (CC-PVTZ AUX)
    Blend: CC-PVTZ-JKFIT

    Orbital Energies [Eh]
    ---------------------

    Alpha Occupied:

       1A1   -19.242224     2A1   -10.330356     3A1    -1.113691
       4A1    -0.581735     1B1    -0.448360     1B2    -0.448360
       5A1    -0.391864

    Alpha Virtual:

       2B1    -0.071110     2B2    -0.071110     6A1     0.152360
       3B1     0.287642     3B2     0.287642     7A1     0.302294
       8A1     0.466914     9A1     0.537990     4B2     0.615489
       4B1     0.615489    10A1     0.633043     1A2     0.633043
       5B2     0.815265     5B1     0.815265    11A1     1.095482
      12A1     1.214012    13A1     1.478123     2A2     1.478123
       6B2     1.796100     6B1     1.796100    14A1     1.969916
       7B2     1.997810     7B1     1.997810    15A1     2.283298
       8B1     2.627037     8B2     2.627037    16A1     2.750515
       3A2     2.750515    17A1     2.911810     4A2     2.911811
       9B2     2.925829     9B1     2.925829    18A1     3.120008
      10B2     3.158989    10B1     3.158989    19A1     3.223717
      11B1     3.934871    11B2     3.934871    20A1     4.095149
      12B2     5.066035    12B1     5.066035    21A1     5.342905
       5A2     5.342906    22A1     5.812372    13B2     5.943628
      13B1     5.943628    23A1     6.199529     6A2     6.199552
      24A1     6.457830    14B1     6.696987    14B2     6.696987
      25A1     6.958062    26A1    10.685152

    Beta Occupied:

       1A1   -19.242224     2A1   -10.330356     3A1    -1.113691
       4A1    -0.581735     1B1    -0.448360     1B2    -0.448360
       5A1    -0.391864

    Beta Virtual:

       2B2    -0.071110     2B1    -0.071110     6A1     0.152360
       3B1     0.287642     3B2     0.287642     7A1     0.302294
       8A1     0.466914     9A1     0.537990     4B2     0.615489
       4B1     0.615489    10A1     0.633043     1A2     0.633043
       5B2     0.815265     5B1     0.815265    11A1     1.095482
      12A1     1.214012    13A1     1.478123     2A2     1.478123
       6B2     1.796100     6B1     1.796100    14A1     1.969916
       7B2     1.997810     7B1     1.997810    15A1     2.283298
       8B1     2.627037     8B2     2.627037    16A1     2.750515
       3A2     2.750515    17A1     2.911810     4A2     2.911811
       9B2     2.925829     9B1     2.925829    18A1     3.120008
      10B2     3.158989    10B1     3.158989    19A1     3.223717
      11B1     3.934871    11B2     3.934871    20A1     4.095149
      12B2     5.066035    12B1     5.066035    21A1     5.342905
       5A2     5.342906    22A1     5.812372    13B2     5.943628
      13B1     5.943628    23A1     6.199529     6A2     6.199552
      24A1     6.457830    14B1     6.696987    14B2     6.696987
      25A1     6.958062    26A1    10.685152

    Final Occupation by Irrep:
             A1    A2    B1    B2
    DOCC [     5,    0,    1,    1 ]
    SOCC [     0,    0,    0,    0 ]
    NA   [     5,    0,    1,    1 ]
    NB   [     5,    0,    1,    1 ]

  @DF-UKS Final Energy:  -113.33653649421103

   => Energetics <=

    Nuclear Repulsion Energy =             20.5814267766805763
    One-Electron Energy =                -194.6972604468723773
    Two-Electron Energy =                  71.9335546632253653
    DFT Exchange-Correlation Energy =     -11.1542574872446103
    Empirical Dispersion Energy =           0.0000000000000000
    VV10 Nonlocal Energy =                  0.0000000000000000
    Total Energy =                       -113.3365364942110318

  UHF NO Occupations:
  HONO-2 :    1 B2 2.0000000
  HONO-1 :    4 A1 2.0000000
  HONO-0 :    5 A1 2.0000000
  LUNO+0 :    6 A1 0.0000000
  LUNO+1 :    7 A1 0.0000000
  LUNO+2 :    8 A1 0.0000000
  LUNO+3 :    9 A1 0.0000000

Computation Completed

Properties will be evaluated at   0.000000,   0.000000,   0.000000 [a0]

Properties computed using the B3LYP density matrix

 Multipole Moments:

 ------------------------------------------------------------------------------------
     Multipole            Electronic (a.u.)      Nuclear  (a.u.)        Total (a.u.)
 ------------------------------------------------------------------------------------

 L = 1.  Multiply by 2.5417464519 to convert [e a0] to [Debye]
 Dipole X            :          0.0000000            0.0000000            0.0000000
 Dipole Y            :          0.0000000            0.0000000            0.0000000
 Dipole Z            :          0.1033350           -0.0025419            0.1007931
 Magnitude           :                                                    0.1007931

 L = 2.  Multiply by 1.3450342976 to convert [e a0^2] to [Debye ang]
 Quadrupole XX       :         -7.7478110            0.0000000           -7.7478110
 Quadrupole XY       :          0.0000000            0.0000000            0.0000000
 Quadrupole XZ       :          0.0000000            0.0000000            0.0000000
 Quadrupole YY       :         -7.7478110            0.0000000           -7.7478110
 Quadrupole YZ       :          0.0000000            0.0000000            0.0000000
 Quadrupole ZZ       :        -27.6988381           18.6485355           -9.0503026
 Traceless XX        :          6.6503424           -6.2161785            0.4341639
 Traceless YY        :          6.6503424           -6.2161785            0.4341639
 Traceless ZZ        :        -13.3006847           12.4323570           -0.8683278

 ------------------------------------------------------------------------------------
  ==> Computing MBIS Charges <==

  Electron Count from Grid (Expected Number): 14.00000 (14.00000)
  Difference:  0.00000

  MBIS Charges: (a.u.)
   Center  Symbol  Z      Pop.       Charge
      1       O    8    8.189283   -0.189283
      2       C    6    5.810718    0.189282

  MBIS Dipoles: [e a0]
   Center  Symbol  Z        X           Y           Z
      1       O    8    0.000000   -0.000000   -0.072829
      2       C    6    0.000000    0.000000   -0.267822

  MBIS Quadrupoles: [e a0^2]
   Center  Symbol  Z      XX        XY        XZ        YY        YZ        ZZ
      1       O    8   -3.7849   -0.0000    0.0000   -3.7849    0.0000   -3.9341
      2       C    6   -3.9629   -0.0000    0.0000   -3.9629    0.0000   -4.6950

  MBIS Octupoles: [e a0^3]
   Center  Symbol  Z      XXX       XXY       XXZ       XYY       XYZ       XZZ       YYY       YYZ       YZZ       ZZZ
      1       O    8    0.0000   -0.0000   -0.0222    0.0000    0.0000   -0.0000   -0.0000   -0.0222   -0.0000   -0.1599
      2       C    6    0.0000   -0.0000   -0.1724    0.0000    0.0000    0.0000    0.0000   -0.1724    0.0000   -0.6137

  MBIS Radial Moments:
   Center  Symbol  Z      [a0^2]      [a0^3]      [a0^4]
      1       O    8   11.503886   21.384199   47.625262
      2       C    6   12.620821   30.247998   85.924448

  MBIS Valence Widths: [a0]
   Center  Symbol  Z     Width
      1       O    8    0.384210
      2       C    6    0.508996

*** tstop() called on Mac.lan at Sun Aug 10 17:17:43 2025
Module time:
	user time   =       4.57 seconds =       0.08 minutes
	system time =       2.13 seconds =       0.04 minutes
	total time  =          1 seconds =       0.02 minutes
Total time:
	user time   =      17.05 seconds =       0.28 minutes
	system time =       4.74 seconds =       0.08 minutes
	total time  =          2 seconds =       0.03 minutes

    Psi4 stopped on: Sunday, 10 August 2025 05:17PM
    Psi4 wall time for execution: 0:00:02.16

*** Psi4 exiting successfully. Buy a developer a beer!
