                               Psi4 1.9.1 release

  ==> Input File <==

--------------------------------------------------------------------------
molecule {
0 2
O           0.000000           0.000000           0.000000
N           0.000000           0.000000           0.792812
}

set {
basis              cc-pvtz
reference          uks
maxiter            500
DAMPING_PERCENTAGE 1
E_CONVERGENCE      1.0E-8
D_CONVERGENCE      1.0E-8
DIIS_MAX_VECS      400
MBIS_MAXITER       8000
guess              read
}

E, wfn = energy('b3lyp', restart_file='last_wfn', return_wfn=True)
properties('b3lyp','MBIS_CHARGES', wfn=wfn)
wfn.to_file('last_wfn')
--------------------------------------------------------------------------

    Molecular point group: c2v
  Charge       = 0
  Multiplicity = 2
  Basis Set: CC-PVTZ
    Blend: CC-PVTZ
  Basis Set: (CC-PVTZ AUX)
    Blend: CC-PVTZ-JKFIT
  @DF-UKS Final Energy:  -129.29674708288366
    Total Energy =                       -129.2967470828836554
 Dipole X            :          0.0000000            0.0000000            0.0000000
 Dipole Y            :          0.0000000            0.0000000            0.0000000
 Dipole Z            :         -0.4497535           -0.0030061           -0.4527596
 Magnitude           :                                                    0.4527596
    Molecular point group: c2v

    Geometry (in Angstrom), charge = 0, multiplicity = 2:

       Center              X                  Y                   Z               Mass
    ------------   -----------------  -----------------  -----------------  -----------------
         O            0.000000000000     0.000000000000    -0.370084982922    15.994914619570
         N            0.000000000000     0.000000000000     0.422727017078    14.003074004430

  Charge       = 0
  Multiplicity = 2
  Basis Set: CC-PVTZ
    Blend: CC-PVTZ
  Basis Set: (CC-PVTZ AUX)
    Blend: CC-PVTZ-JKFIT

    Orbital Energies [Eh]
    ---------------------

    Alpha Occupied:

       1A1   -19.255968     2A1   -14.385778     3A1    -1.552951
       1B1    -0.748004     1B2    -0.733877     4A1    -0.661531
       5A1    -0.501044     2B1    -0.018449

    Alpha Virtual:

       2B2     0.080748     6A1     0.234310     3B1     0.357154
       3B2     0.358494     7A1     0.409084     8A1     0.527897
       4B1     0.615336     4B2     0.631964     1A2     0.886367
       9A1     0.887905    10A1     1.184935    11A1     1.264353
       5B1     1.339248     5B2     1.344038     2A2     1.639930
      12A1     1.641625    13A1     1.997930     6B1     2.062429
       6B2     2.066743     7B1     2.666562     7B2     2.673133
      14A1     2.812520    15A1     3.246331     8B1     3.694076
       8B2     3.694287    16A1     3.804309     3A2     3.939683
      17A1     3.941288     9B1     3.946623     9B2     3.953057
      10B1     4.254620    10B2     4.256628     4A2     4.360644
      18A1     4.363703    19A1     4.698217    11B2     4.979303
      11B1     4.979686    12B1     5.206927    12B2     5.207045
      20A1     6.018685     5A2     6.095476    21A1     6.097222
       6A2     6.556640    22A1     6.557936    13B2     6.610892
      13B1     6.611675    23A1     6.998420    24A1     7.895313
      14B1     8.497808    14B2     8.500109    25A1    10.076488
      26A1    24.138645

    Beta Occupied:

       1A1   -19.245970     2A1   -14.376020     3A1    -1.540393
       1B2    -0.725655     1B1    -0.690047     4A1    -0.635362
       5A1    -0.467190

    Beta Virtual:

       2B2     0.093083     2B1     0.126655     6A1     0.239926
       3B2     0.362018     3B1     0.381989     7A1     0.419181
       8A1     0.541378     4B2     0.638860     4B1     0.660286
       9A1     0.908385     1A2     0.908554    10A1     1.198512
      11A1     1.277983     5B2     1.347970     5B1     1.376399
       2A2     1.669504    12A1     1.669823    13A1     2.008986
       6B2     2.071570     6B1     2.094219     7B2     2.681059
       7B1     2.713562    14A1     2.832804    15A1     3.262142
       8B2     3.722881     8B1     3.722918    16A1     3.818967
       3A2     3.957872    17A1     3.958594     9B2     3.960150
       9B1     3.990507    10B2     4.260628    10B1     4.293085
      18A1     4.402758     4A2     4.403065    19A1     4.712334
      11B2     4.983391    11B1     5.012029    12B2     5.234340
      12B1     5.234357    20A1     6.032134     5A2     6.131570
      21A1     6.132848     6A2     6.581103    22A1     6.581279
      13B2     6.614433    13B1     6.642597    23A1     7.006958
      24A1     7.906685    14B2     8.505814    14B1     8.537260
      25A1    10.095927    26A1    24.151981

    Final Occupation by Irrep:
             A1    A2    B1    B2
    DOCC [     5,    0,    1,    1 ]
    SOCC [     0,    0,    1,    0 ]
    NA   [     5,    0,    2,    1 ]
    NB   [     5,    0,    1,    1 ]

  @DF-UKS Final Energy:  -129.29674708222046

   => Energetics <=

    Nuclear Repulsion Energy =             37.3782483079469046
    One-Electron Energy =                -248.5643750014541524
    Two-Electron Energy =                  94.7773574594441044
    DFT Exchange-Correlation Energy =     -12.8879778481573286
    Empirical Dispersion Energy =           0.0000000000000000
    VV10 Nonlocal Energy =                  0.0000000000000000
    Total Energy =                       -129.2967470822204632

  UHF NO Occupations:
  HONO-2 :    1 B1 1.9998104
  HONO-1 :    5 A1 1.9997422
  HONO-0 :    2 B1 1.0000000
  LUNO+0 :    6 A1 0.0002578
  LUNO+1 :    3 B1 0.0001896
  LUNO+2 :    7 A1 0.0000800
  LUNO+3 :    2 B2 0.0000110

Computation Completed

Properties will be evaluated at   0.000000,   0.000000,   0.000000 [a0]

Properties computed using the B3LYP density matrix

 Multipole Moments:

 ------------------------------------------------------------------------------------
     Multipole            Electronic (a.u.)      Nuclear  (a.u.)        Total (a.u.)
 ------------------------------------------------------------------------------------

 L = 1.  Multiply by 2.5417464519 to convert [e a0] to [Debye]
 Dipole X            :          0.0000000            0.0000000            0.0000000
 Dipole Y            :          0.0000000            0.0000000            0.0000000
 Dipole Z            :         -0.4497535           -0.0030061           -0.4527596
 Magnitude           :                                                    0.4527596

 L = 2.  Multiply by 1.3450342976 to convert [e a0^2] to [Debye ang]
 Quadrupole XX       :         -7.6449551            0.0000000           -7.6449551
 Quadrupole XY       :          0.0000000            0.0000000            0.0000000
 Quadrupole XZ       :          0.0000000            0.0000000            0.0000000
 Quadrupole YY       :         -6.4156662            0.0000000           -6.4156662
 Quadrupole YZ       :          0.0000000            0.0000000            0.0000000
 Quadrupole ZZ       :        -16.9278587            8.3798253           -8.5480334
 Traceless XX        :          2.6845382           -2.7932751           -0.1087369
 Traceless YY        :          3.9138271           -2.7932751            1.1205520
 Traceless ZZ        :         -6.5983653            5.5865502           -1.0118151

 ------------------------------------------------------------------------------------
  ==> Computing MBIS Charges <==

  Electron Count from Grid (Expected Number): 15.00000 (15.00000)
  Difference:  0.00000

  MBIS Charges: (a.u.)
   Center  Symbol  Z      Pop.       Charge
      1       O    8    7.784400    0.215600
      2       N    7    7.215600   -0.215600

  MBIS Dipoles: [e a0]
   Center  Symbol  Z        X           Y           Z
      1       O    8    0.000000   -0.000000    0.118991
      2       N    7    0.000000   -0.000000   -0.248739

  MBIS Quadrupoles: [e a0^2]
   Center  Symbol  Z      XX        XY        XZ        YY        YZ        ZZ
      1       O    8   -3.0779   -0.0000   -0.0000   -2.7801   -0.0000   -3.3832
      2       N    7   -4.5671   -0.0000   -0.0000   -3.6355    0.0000   -4.5689

  MBIS Octupoles: [e a0^3]
   Center  Symbol  Z      XXX       XXY       XXZ       XYY       XYZ       XZZ       YYY       YYZ       YZZ       ZZZ
      1       O    8    0.0000   -0.0000    0.2332    0.0000   -0.0000    0.0000   -0.0000    0.1606   -0.0000    0.3594
      2       N    7    0.0000   -0.0000   -0.9517    0.0000   -0.0000    0.0000   -0.0000   -0.3239    0.0000   -0.3810

  MBIS Radial Moments:
   Center  Symbol  Z      [a0^2]      [a0^3]      [a0^4]
      1       O    8    9.241166   16.027946   33.685480
      2       N    7   12.771517   27.776506   72.691251

  MBIS Valence Widths: [a0]
   Center  Symbol  Z     Width
      1       O    8    0.352606
      2       N    7    0.436242

*** tstop() called on Mac.lan at Sun Aug 10 17:20:19 2025
Module time:
	user time   =       3.50 seconds =       0.06 minutes
	system time =       2.52 seconds =       0.04 minutes
	total time  =          1 seconds =       0.02 minutes
Total time:
	user time   =      17.03 seconds =       0.28 minutes
	system time =       4.67 seconds =       0.08 minutes
	total time  =          2 seconds =       0.03 minutes

    Psi4 stopped on: Sunday, 10 August 2025 05:20PM
    Psi4 wall time for execution: 0:00:02.10

*** Psi4 exiting successfully. Buy a developer a beer!
