                               Psi4 1.9.1 release

  ==> Input File <==

--------------------------------------------------------------------------
molecule {
0 2
C           0.000000           0.000000           0.000000
H           0.000000           0.000000           1.334681
}

set {
basis              cc-pvtz
reference          uks
maxiter            500
DAMPING_PERCENTAGE 1
E_CONVERGENCE      1.0E-8
D_CONVERGENCE      1.0E-8
DIIS_MAX_VECS      400
MBIS_MAXITER       8000
guess              read
}

E, wfn = energy('b3lyp', restart_file='last_wfn', return_wfn=True)
properties('b3lyp','MBIS_CHARGES', wfn=wfn)
wfn.to_file('last_wfn')
--------------------------------------------------------------------------

    Molecular point group: c2v
  Charge       = 0
  Multiplicity = 2
  Basis Set: CC-PVTZ
    Blend: CC-PVTZ
  Basis Set: (CC-PVTZ AUX)
    Blend: CC-PVTZ-JKFIT
  @DF-UKS Final Energy:   -38.48110488084703
    Total Energy =                        -38.4811048808470275
 Dipole X            :          0.0000000            0.0000000            0.0000000
 Dipole Y            :          0.0000000            0.0000000            0.0000000
 Dipole Z            :         -0.7449325            1.1542800            0.4093475
 Magnitude           :                                                    0.4093475
    Molecular point group: c2v

    Geometry (in Angstrom), charge = 0, multiplicity = 2:

       Center              X                  Y                   Z               Mass
    ------------   -----------------  -----------------  -----------------  -----------------
         C            0.000000000000     0.000000000000    -0.103408903372    12.000000000000
         H            0.000000000000     0.000000000000     1.231272096628     1.007825032230

  Charge       = 0
  Multiplicity = 2
  Basis Set: CC-PVTZ
    Blend: CC-PVTZ
  Basis Set: (CC-PVTZ AUX)
    Blend: CC-PVTZ-JKFIT

    Orbital Energies [Eh]
    ---------------------

    Alpha Occupied:

       1A1   -10.304453     2A1    -0.615039     3A1    -0.321041
       1B1    -0.263806

    Alpha Virtual:

       1B2    -0.150751     4A1     0.024928     5A1     0.269317
       2B1     0.288292     2B2     0.307930     6A1     0.322269
       7A1     0.448163     3B1     0.548313     3B2     0.550783
       1A2     0.653871     8A1     0.659603     9A1     0.905188
       4B1     0.972290     4B2     0.973139    10A1     1.220127
       5B1     1.906338     5B2     1.932884    11A1     2.119501
      12A1     2.378837     2A2     2.551426    13A1     2.555502
       6B1     2.559612     6B2     2.564112     7B1     2.637353
       7B2     2.639892    14A1     2.729135     3A2     2.888677
      15A1     2.901679     8B1     3.015178     8B2     3.028795
      16A1     3.083813     4A2     3.380289    17A1     3.381475
       9B2     3.707733     9B1     3.709919    18A1     3.847314
      10B2     4.221256    10B1     4.221551    19A1     4.356655
      20A1     6.398780

    Beta Occupied:

       1A1   -10.289298     2A1    -0.568048     3A1    -0.305084

    Beta Virtual:

       1B2    -0.134539     1B1    -0.087896     4A1     0.032935
       5A1     0.273065     2B2     0.315361     6A1     0.330177
       2B1     0.344270     7A1     0.468074     3B2     0.551354
       3B1     0.571041     8A1     0.697035     1A2     0.697401
       9A1     0.918408     4B2     0.974425     4B1     0.994151
      10A1     1.225362     5B2     1.943843     5B1     1.987531
      11A1     2.131943    12A1     2.383277     6B2     2.567415
      13A1     2.582921     2A2     2.583152     6B1     2.598484
       7B2     2.696126     7B1     2.696791    14A1     2.748380
       3A2     2.967137    15A1     2.967577     8B2     3.034375
       8B1     3.076753    16A1     3.104986     4A2     3.386243
      17A1     3.386562     9B2     3.702155     9B1     3.709129
      18A1     3.859273    10B2     4.220320    10B1     4.238489
      19A1     4.357943    20A1     6.414318

    Final Occupation by Irrep:
             A1    A2    B1    B2
    DOCC [     3,    0,    0,    0 ]
    SOCC [     0,    0,    1,    0 ]
    NA   [     3,    0,    1,    0 ]
    NB   [     3,    0,    0,    0 ]

  @DF-UKS Final Energy:   -38.48110488100220

   => Energetics <=

    Nuclear Repulsion Energy =              2.3788929819335110
    One-Electron Energy =                 -55.8044246450206458
    Two-Electron Energy =                  19.4422053034442577
    DFT Exchange-Correlation Energy =      -4.4977785213593195
    Empirical Dispersion Energy =           0.0000000000000000
    VV10 Nonlocal Energy =                  0.0000000000000000
    Total Energy =                        -38.4811048810021958

  UHF NO Occupations:
  HONO-2 :    2 A1 1.9996627
  HONO-1 :    3 A1 1.9986123
  HONO-0 :    1 B1 1.0000000
  LUNO+0 :    4 A1 0.0013877
  LUNO+1 :    5 A1 0.0003373
  LUNO+2 :    6 A1 0.0000007
  LUNO+3 :    7 A1 0.0000000

Computation Completed

Properties will be evaluated at   0.000000,   0.000000,   0.000000 [a0]

Properties computed using the B3LYP density matrix

 Multipole Moments:

 ------------------------------------------------------------------------------------
     Multipole            Electronic (a.u.)      Nuclear  (a.u.)        Total (a.u.)
 ------------------------------------------------------------------------------------

 L = 1.  Multiply by 2.5417464519 to convert [e a0] to [Debye]
 Dipole X            :          0.0000000            0.0000000            0.0000000
 Dipole Y            :          0.0000000            0.0000000            0.0000000
 Dipole Z            :         -0.7449325            1.1542800            0.4093475
 Magnitude           :                                                    0.4093475

 L = 2.  Multiply by 1.3450342976 to convert [e a0^2] to [Debye ang]
 Quadrupole XX       :         -5.8435528            0.0000000           -5.8435528
 Quadrupole XY       :          0.0000000            0.0000000            0.0000000
 Quadrupole XZ       :          0.0000000            0.0000000            0.0000000
 Quadrupole YY       :         -4.3660814            0.0000000           -4.3660814
 Quadrupole YZ       :          0.0000000            0.0000000            0.0000000
 Quadrupole ZZ       :        -11.3100518            5.6429659           -5.6670860
 Traceless XX        :          1.3296759           -1.8809886           -0.5513127
 Traceless YY        :          2.8071472           -1.8809886            0.9261586
 Traceless ZZ        :         -4.1368231            3.7619772           -0.3748459

 ------------------------------------------------------------------------------------
  ==> Computing MBIS Charges <==

  Electron Count from Grid (Expected Number):  7.00000 ( 7.00000)
  Difference:  0.00000

  MBIS Charges: (a.u.)
   Center  Symbol  Z      Pop.       Charge
      1       C    6    6.034056   -0.034056
      2       H    1    0.965944    0.034056

  MBIS Dipoles: [e a0]
   Center  Symbol  Z        X           Y           Z
      1       C    6   -0.000000   -0.000000    0.258712
      2       H    1   -0.000000   -0.000000    0.064740

  MBIS Quadrupoles: [e a0^2]
   Center  Symbol  Z      XX        XY        XZ        YY        YZ        ZZ
      1       C    6   -5.0912    0.0000    0.0000   -3.6902    0.0000   -5.3116
      2       H    1   -0.7524    0.0000   -0.0000   -0.6758    0.0000   -0.7387

  MBIS Octupoles: [e a0^3]
   Center  Symbol  Z      XXX       XXY       XXZ       XYY       XYZ       XZZ       YYY       YYZ       YZZ       ZZZ
      1       C    6   -0.0000    0.0000    0.3189   -0.0000   -0.0000   -0.0000   -0.0000    0.2951   -0.0000    0.5414
      2       H    1    0.0000    0.0000    0.0020   -0.0000   -0.0000   -0.0000   -0.0000   -0.0604   -0.0000   -0.0096

  MBIS Radial Moments:
   Center  Symbol  Z      [a0^2]      [a0^3]      [a0^4]
      1       C    6   14.092987   35.107101   104.594287
      2       H    1    2.166965    4.660230   12.059835

  MBIS Valence Widths: [a0]
   Center  Symbol  Z     Width
      1       C    6    0.523983
      2       H    1    0.434615

*** tstop() called on Mac.lan at Sun Aug 10 17:09:21 2025
Module time:
	user time   =       2.65 seconds =       0.04 minutes
	system time =       1.84 seconds =       0.03 minutes
	total time  =          0 seconds =       0.00 minutes
Total time:
	user time   =      11.85 seconds =       0.20 minutes
	system time =       3.96 seconds =       0.07 minutes
	total time  =          1 seconds =       0.02 minutes

    Psi4 stopped on: Sunday, 10 August 2025 05:09PM
    Psi4 wall time for execution: 0:00:01.55

*** Psi4 exiting successfully. Buy a developer a beer!
