                               Psi4 1.9.1 release

  ==> Input File <==

--------------------------------------------------------------------------
molecule {
0 3
C           0.000000           0.000000           0.000000
C           0.000000           0.000000           1.139747
}

set {
basis              cc-pvtz
reference          uks
maxiter            500
DAMPING_PERCENTAGE 1
E_CONVERGENCE      1.0E-8
D_CONVERGENCE      1.0E-8
DIIS_MAX_VECS      400
MBIS_MAXITER       8000
guess              read
}

E, wfn = energy('b3lyp', restart_file='last_wfn', return_wfn=True)
properties('b3lyp','MBIS_CHARGES', wfn=wfn)
wfn.to_file('last_wfn')
--------------------------------------------------------------------------

    Molecular point group: d2h
  Charge       = 0
  Multiplicity = 3
  Basis Set: CC-PVTZ
    Blend: CC-PVTZ
  Basis Set: (CC-PVTZ AUX)
    Blend: CC-PVTZ-JKFIT
  @DF-UKS Final Energy:   -75.90111326238809
    Total Energy =                        -75.9011132623880940
 Dipole X            :          0.0000000            0.0000000            0.0000000
 Dipole Y            :          0.0000000            0.0000000            0.0000000
 Dipole Z            :          0.0000000           -0.0000000           -0.0000000
 Magnitude           :                                                    0.0000000
    Molecular point group: d2h

    Geometry (in Angstrom), charge = 0, multiplicity = 3:

       Center              X                  Y                   Z               Mass
    ------------   -----------------  -----------------  -----------------  -----------------
         C            0.000000000000     0.000000000000    -0.569873500000    12.000000000000
         C            0.000000000000     0.000000000000     0.569873500000    12.000000000000

  Charge       = 0
  Multiplicity = 3
  Basis Set: CC-PVTZ
    Blend: CC-PVTZ
  Basis Set: (CC-PVTZ AUX)
    Blend: CC-PVTZ-JKFIT

    Orbital Energies [Eh]
    ---------------------

    Alpha Occupied:

       1Ag   -10.260897     1B1u  -10.256479     2Ag    -0.883257
       2B1u   -0.427387     1B3u   -0.411729     1B2u   -0.372336
       3Ag    -0.362274

    Alpha Virtual:

       1B2g   -0.001316     1B3g    0.025002     3B1u    0.185478
       2B3u    0.241416     2B2u    0.256869     4Ag     0.258161
       5Ag     0.330591     2B2g    0.371682     2B3g    0.386963
       1B1g    0.539579     6Ag     0.540388     4B1u    0.545450
       5B1u    0.718019     3B3u    0.769317     3B2u    0.792816
       1Au     0.874023     6B1u    0.874964     7Ag     1.122358
       3B2g    1.126469     3B3g    1.141458     7B1u    1.537328
       4B3u    1.856916     4B2u    1.886167     8Ag     2.070446
       4B2g    2.219154     4B3g    2.248322     8B1u    2.323801
       2B1g    2.404493     9Ag     2.405724     5B3u    2.432286
       5B2u    2.432427     6B3u    2.496289     6B2u    2.528123
      10Ag     2.749112     5B2g    2.901340     5B3g    2.902020
       6B2g    2.921168     3B1g    2.928061    11Ag     2.928799
       6B3g    2.940103     9B1u    2.991822     2Au     2.991901
      10B1u    3.396775    12Ag     3.528622     7B3u    3.532823
       7B2u    3.559321     3Au     3.636938    11B1u    3.637643
      12B1u    4.206786     7B2g    4.816690     7B3g    4.846991
      13Ag     5.282584    13B1u   14.764684

    Beta Occupied:

       1Ag   -10.243554     1B1u  -10.239709     2Ag    -0.809367
       1B2u   -0.351774     2B1u   -0.337724

    Beta Virtual:

       1B3u   -0.249924     3Ag    -0.211482     1B3g    0.047338
       1B2g    0.066883     3B1u    0.198161     2B2u    0.263065
       2B3u    0.272010     4Ag     0.278729     5Ag     0.368180
       2B3g    0.396867     2B2g    0.408097     1B1g    0.569318
       6Ag     0.572110     4B1u    0.579356     5B1u    0.759602
       3B2u    0.820370     3B3u    0.823211     1Au     0.898400
       6B1u    0.900311     3B3g    1.160182     7Ag     1.162069
       3B2g    1.163161     7B1u    1.589153     4B2u    1.900248
       4B3u    1.913227     8Ag     2.118298     4B3g    2.261539
       4B2g    2.270404     8B1u    2.372273     2B1g    2.446553
       9Ag     2.449896     5B2u    2.469198     5B3u    2.470247
       6B2u    2.566585     6B3u    2.579850    10Ag     2.824144
       5B3g    2.938294     5B2g    2.939325     3B1g    2.977390
      11Ag     2.981828     6B3g    2.987533     6B2g    2.993050
       2Au     3.039028     9B1u    3.043473    10B1u    3.455015
      12Ag     3.570196     7B2u    3.600047     7B3u    3.604045
       3Au     3.678615    11B1u    3.681928    12B1u    4.266401
       7B3g    4.878530     7B2g    4.889500    13Ag     5.324671
      13B1u   14.790808

    Final Occupation by Irrep:
             Ag   B1g   B2g   B3g    Au   B1u   B2u   B3u
    DOCC [     2,    0,    0,    0,    0,    2,    1,    0 ]
    SOCC [     1,    0,    0,    0,    0,    0,    0,    1 ]
    NA   [     3,    0,    0,    0,    0,    2,    1,    1 ]
    NB   [     2,    0,    0,    0,    0,    2,    1,    0 ]

  @DF-UKS Final Energy:   -75.90111326242858

   => Energetics <=

    Nuclear Repulsion Energy =             16.7145687456251260
    One-Electron Energy =                -134.0222874813329383
    Two-Electron Energy =                  50.0820955287373835
    DFT Exchange-Correlation Energy =      -8.6754900554581553
    Empirical Dispersion Energy =           0.0000000000000000
    VV10 Nonlocal Energy =                  0.0000000000000000
    Total Energy =                        -75.9011132624285807

  UHF NO Occupations:
  HONO-2 :    2B1u 1.9984850
  HONO-1 :    3 Ag 1.0000000
  HONO-0 :    1B3u 1.0000000
  LUNO+0 :    3B1u 0.0015150
  LUNO+1 :    4 Ag 0.0003718
  LUNO+2 :    2B2u 0.0001344
  LUNO+3 :    4B1u 0.0000007

Computation Completed

Properties will be evaluated at   0.000000,   0.000000,   0.000000 [a0]

Properties computed using the B3LYP density matrix

 Multipole Moments:

 ------------------------------------------------------------------------------------
     Multipole            Electronic (a.u.)      Nuclear  (a.u.)        Total (a.u.)
 ------------------------------------------------------------------------------------

 L = 1.  Multiply by 2.5417464519 to convert [e a0] to [Debye]
 Dipole X            :          0.0000000            0.0000000            0.0000000
 Dipole Y            :          0.0000000            0.0000000            0.0000000
 Dipole Z            :          0.0000000           -0.0000000           -0.0000000
 Magnitude           :                                                    0.0000000

 L = 2.  Multiply by 1.3450342976 to convert [e a0^2] to [Debye ang]
 Quadrupole XX       :         -7.5175617            0.0000000           -7.5175617
 Quadrupole XY       :          0.0000000            0.0000000            0.0000000
 Quadrupole XZ       :          0.0000000            0.0000000            0.0000000
 Quadrupole YY       :         -8.8300656            0.0000000           -8.8300656
 Quadrupole YZ       :          0.0000000            0.0000000            0.0000000
 Quadrupole ZZ       :        -23.1764858           13.9166884           -9.2597973
 Traceless XX        :          5.6571427           -4.6388961            1.0182465
 Traceless YY        :          4.3446388           -4.6388961           -0.2942574
 Traceless ZZ        :        -10.0017814            9.2777923           -0.7239891

 ------------------------------------------------------------------------------------
  ==> Computing MBIS Charges <==

  Electron Count from Grid (Expected Number): 12.00000 (12.00000)
  Difference: -0.00000

  MBIS Charges: (a.u.)
   Center  Symbol  Z      Pop.       Charge
      1       C    6    6.000000    0.000000
      2       C    6    6.000000    0.000000

  MBIS Dipoles: [e a0]
   Center  Symbol  Z        X           Y           Z
      1       C    6   -0.000000    0.000000   -0.004966
      2       C    6   -0.000000    0.000000    0.004966

  MBIS Quadrupoles: [e a0^2]
   Center  Symbol  Z      XX        XY        XZ        YY        YZ        ZZ
      1       C    6   -3.7588   -0.0000   -0.0000   -4.4150   -0.0000   -4.6406
      2       C    6   -3.7588   -0.0000    0.0000   -4.4150    0.0000   -4.6406

  MBIS Octupoles: [e a0^3]
   Center  Symbol  Z      XXX       XXY       XXZ       XYY       XYZ       XZZ       YYY       YYZ       YZZ       ZZZ
      1       C    6   -0.0000    0.0000    0.1879   -0.0000    0.0000   -0.0000    0.0000   -0.0075    0.0000    0.3355
      2       C    6   -0.0000    0.0000   -0.1879   -0.0000   -0.0000   -0.0000    0.0000    0.0075    0.0000   -0.3355

  MBIS Radial Moments:
   Center  Symbol  Z      [a0^2]      [a0^3]      [a0^4]
      1       C    6   12.814408   30.555859   87.236790
      2       C    6   12.814408   30.555859   87.236790

  MBIS Valence Widths: [a0]
   Center  Symbol  Z     Width
      1       C    6    0.499096
      2       C    6    0.499096

*** tstop() called on Mac.lan at Sun Aug 10 17:03:24 2025
Module time:
	user time   =       3.71 seconds =       0.06 minutes
	system time =       2.71 seconds =       0.05 minutes
	total time  =          1 seconds =       0.02 minutes
Total time:
	user time   =      16.83 seconds =       0.28 minutes
	system time =       4.95 seconds =       0.08 minutes
	total time  =          2 seconds =       0.03 minutes

    Psi4 stopped on: Sunday, 10 August 2025 05:03PM
    Psi4 wall time for execution: 0:00:02.12

*** Psi4 exiting successfully. Buy a developer a beer!
