                               Psi4 1.9.1 release

  ==> Input File <==

--------------------------------------------------------------------------
molecule {
0 2
N           0.000000           0.000000           0.000000
C           0.000000           0.000000           1.616031
}

set {
basis              cc-pvtz
reference          uks
maxiter            500
DAMPING_PERCENTAGE 1
E_CONVERGENCE      1.0E-8
D_CONVERGENCE      1.0E-8
DIIS_MAX_VECS      400
MBIS_MAXITER       8000
guess              read
}

E, wfn = energy('b3lyp', restart_file='last_wfn', return_wfn=True)
properties('b3lyp','MBIS_CHARGES', wfn=wfn)
wfn.to_file('last_wfn')
--------------------------------------------------------------------------

    Molecular point group: c2v
  Charge       = 0
  Multiplicity = 2
  Basis Set: CC-PVTZ
    Blend: CC-PVTZ
  Basis Set: (CC-PVTZ AUX)
    Blend: CC-PVTZ-JKFIT
  @DF-UKS Final Energy:   -92.57976088904192
    Total Energy =                        -92.5797608890419212
 Dipole X            :          0.0000000            0.0000000            0.0000000
 Dipole Y            :          0.0000000            0.0000000            0.0000000
 Dipole Z            :          0.4069975            0.0021661            0.4091636
 Magnitude           :                                                    0.4091636
    Molecular point group: c2v

    Geometry (in Angstrom), charge = 0, multiplicity = 2:

       Center              X                  Y                   Z               Mass
    ------------   -----------------  -----------------  -----------------  -----------------
         N            0.000000000000     0.000000000000    -0.745772288180    14.003074004430
         C            0.000000000000     0.000000000000     0.870258711820    12.000000000000

  Charge       = 0
  Multiplicity = 2
  Basis Set: CC-PVTZ
    Blend: CC-PVTZ
  Basis Set: (CC-PVTZ AUX)
    Blend: CC-PVTZ-JKFIT

    Orbital Energies [Eh]
    ---------------------

    Alpha Occupied:

       1A1   -14.456646     2A1   -10.383802     3A1    -0.831334
       4A1    -0.575584     5A1    -0.400729     1B2    -0.327646
       1B1    -0.327646

    Alpha Virtual:

       2B1    -0.134583     2B2    -0.134583     6A1     0.059080
       7A1     0.258636     3B1     0.292873     3B2     0.292873
       8A1     0.317152     9A1     0.433457     4B1     0.493715
       4B2     0.493715     1A2     0.631465    10A1     0.631465
       5B1     0.687509     5B2     0.687509    11A1     0.852330
      12A1     1.008776    13A1     1.069591     2A2     1.069591
       6B1     1.319813     6B2     1.319813    14A1     1.497457
       7B2     1.924101     7B1     1.924101    15A1     2.147604
       8B1     2.574928     8B2     2.574928     3A2     2.608398
      16A1     2.608399     9B1     2.625721     9B2     2.625721
      17A1     2.658026    18A1     2.883732     4A2     2.883734
      10B1     2.901570    10B2     2.901570    19A1     3.075967
      11B1     3.098215    11B2     3.098215    20A1     3.223600
      12B2     3.867190    12B1     3.867190    21A1     3.950618
       5A2     3.950619    22A1     3.963748    13B1     4.266574
      13B2     4.266574     6A2     4.426009    23A1     4.426012
      24A1     4.595111    14B2     4.769116    14B1     4.769116
      25A1     5.488807    26A1     6.715618

    Beta Occupied:

       1A1   -14.447676     2A1   -10.374013     3A1    -0.799576
       4A1    -0.516565     1B2    -0.320255     1B1    -0.320255

    Beta Virtual:

       5A1    -0.247313     2B1    -0.120567     2B2    -0.120567
       6A1     0.098848     7A1     0.294005     3B1     0.298225
       3B2     0.298225     8A1     0.339635     9A1     0.460243
       4B1     0.495748     4B2     0.495748    10A1     0.636937
       1A2     0.636937     5B1     0.713932     5B2     0.713932
      11A1     0.864098    12A1     1.046078    13A1     1.069715
       2A2     1.069715     6B1     1.345422     6B2     1.345422
      14A1     1.532922     7B2     1.934001     7B1     1.934001
      15A1     2.193290     8B1     2.598555     8B2     2.598555
       3A2     2.631114    16A1     2.631115     9B1     2.632111
       9B2     2.632111    17A1     2.704058    18A1     2.895247
       4A2     2.895250    10B1     2.921077    10B2     2.921077
      19A1     3.136079    11B1     3.138262    11B2     3.138262
      20A1     3.262042    12B2     3.862895    12B1     3.862895
      21A1     3.967487     5A2     3.967488    22A1     3.998676
      13B1     4.299241    13B2     4.299241     6A2     4.425958
      23A1     4.425962    24A1     4.660158    14B2     4.813620
      14B1     4.813620    25A1     5.520747    26A1     6.737225

    Final Occupation by Irrep:
             A1    A2    B1    B2
    DOCC [     4,    0,    1,    1 ]
    SOCC [     1,    0,    0,    0 ]
    NA   [     5,    0,    1,    1 ]
    NB   [     4,    0,    1,    1 ]

  @DF-UKS Final Energy:   -92.57976086735599

   => Energetics <=

    Nuclear Repulsion Energy =             13.7531042709824263
    One-Electron Energy =                -151.6600454645025593
    Two-Electron Energy =                  54.9283793729006149
    DFT Exchange-Correlation Energy =      -9.6011990467364541
    Empirical Dispersion Energy =           0.0000000000000000
    VV10 Nonlocal Energy =                  0.0000000000000000
    Total Energy =                        -92.5797608673559722

  UHF NO Occupations:
  HONO-2 :    1 B2 1.9990657
  HONO-1 :    4 A1 1.9961083
  HONO-0 :    5 A1 1.0000000
  LUNO+0 :    6 A1 0.0038917
  LUNO+1 :    2 B2 0.0009343
  LUNO+2 :    2 B1 0.0009343
  LUNO+3 :    7 A1 0.0002779

Computation Completed

Properties will be evaluated at   0.000000,   0.000000,   0.000000 [a0]

Properties computed using the B3LYP density matrix

 Multipole Moments:

 ------------------------------------------------------------------------------------
     Multipole            Electronic (a.u.)      Nuclear  (a.u.)        Total (a.u.)
 ------------------------------------------------------------------------------------

 L = 1.  Multiply by 2.5417464519 to convert [e a0] to [Debye]
 Dipole X            :          0.0000000            0.0000000            0.0000000
 Dipole Y            :          0.0000000            0.0000000            0.0000000
 Dipole Z            :          0.4069967            0.0021661            0.4091628
 Magnitude           :                                                    0.4091628

 L = 2.  Multiply by 1.3450342976 to convert [e a0^2] to [Debye ang]
 Quadrupole XX       :         -9.0337861            0.0000000           -9.0337861
 Quadrupole XY       :          0.0000000            0.0000000            0.0000000
 Quadrupole XZ       :          0.0000000            0.0000000            0.0000000
 Quadrupole YY       :         -9.0337861            0.0000000           -9.0337861
 Quadrupole YZ       :          0.0000000            0.0000000            0.0000000
 Quadrupole ZZ       :        -37.4692270           30.1302720           -7.3389550
 Traceless XX        :          9.4784803          -10.0434240           -0.5649437
 Traceless YY        :          9.4784803          -10.0434240           -0.5649437
 Traceless ZZ        :        -18.9569606           20.0868480            1.1298874

 ------------------------------------------------------------------------------------
  ==> Computing MBIS Charges <==

  Electron Count from Grid (Expected Number): 13.00000 (13.00000)
  Difference: -0.00000

  MBIS Charges: (a.u.)
   Center  Symbol  Z      Pop.       Charge
      1       N    7    7.172516   -0.172516
      2       C    6    5.827483    0.172517

  MBIS Dipoles: [e a0]
   Center  Symbol  Z        X           Y           Z
      1       N    7   -0.000000   -0.000000   -0.282471
      2       C    6   -0.000000    0.000000    0.164792

  MBIS Quadrupoles: [e a0^2]
   Center  Symbol  Z      XX        XY        XZ        YY        YZ        ZZ
      1       N    7   -4.6156    0.0000   -0.0000   -4.6156    0.0000   -4.3804
      2       C    6   -4.4182    0.0000    0.0000   -4.4182    0.0000   -4.4207

  MBIS Octupoles: [e a0^3]
   Center  Symbol  Z      XXX       XXY       XXZ       XYY       XYZ       XZZ       YYY       YYZ       YZZ       ZZZ
      1       N    7   -0.0000   -0.0000   -0.4606   -0.0000    0.0000    0.0000   -0.0000   -0.4606   -0.0000   -1.2398
      2       C    6   -0.0000   -0.0000    0.4680   -0.0000   -0.0000   -0.0000    0.0000    0.4680    0.0000    1.0333

  MBIS Radial Moments:
   Center  Symbol  Z      [a0^2]      [a0^3]      [a0^4]
      1       N    7   13.611637   29.877651   78.073062
      2       C    6   13.257023   32.632546   95.385190

  MBIS Valence Widths: [a0]
   Center  Symbol  Z     Width
      1       N    7    0.457039
      2       C    6    0.521479

*** tstop() called on Mac.lan at Sun Aug 10 17:15:47 2025
Module time:
	user time   =       3.30 seconds =       0.06 minutes
	system time =       2.15 seconds =       0.04 minutes
	total time  =          1 seconds =       0.02 minutes
Total time:
	user time   =      18.76 seconds =       0.31 minutes
	system time =       4.73 seconds =       0.08 minutes
	total time  =          3 seconds =       0.05 minutes

    Psi4 stopped on: Sunday, 10 August 2025 05:15PM
    Psi4 wall time for execution: 0:00:02.27

*** Psi4 exiting successfully. Buy a developer a beer!
