                               Psi4 1.9.1 release

  ==> Input File <==

--------------------------------------------------------------------------
molecule {
0 2
N           0.000000           0.000000           0.000000
C           0.000000           0.000000           1.167529
}

set {
basis              cc-pvtz
reference          uks
maxiter            500
DAMPING_PERCENTAGE 1
E_CONVERGENCE      1.0E-8
D_CONVERGENCE      1.0E-8
DIIS_MAX_VECS      400
MBIS_MAXITER       8000
guess              read
}

E, wfn = energy('b3lyp', restart_file='last_wfn', return_wfn=True)
properties('b3lyp','MBIS_CHARGES', wfn=wfn)
wfn.to_file('last_wfn')
--------------------------------------------------------------------------

    Molecular point group: c2v
  Charge       = 0
  Multiplicity = 2
  Basis Set: CC-PVTZ
    Blend: CC-PVTZ
  Basis Set: (CC-PVTZ AUX)
    Blend: CC-PVTZ-JKFIT
  @DF-UKS Final Energy:   -92.74573159887417
    Total Energy =                        -92.7457315988741726
 Dipole X            :          0.0000000            0.0000000            0.0000000
 Dipole Y            :          0.0000000            0.0000000            0.0000000
 Dipole Z            :          0.5154484            0.0015649            0.5170133
 Magnitude           :                                                    0.5170133
    Molecular point group: c2v

    Geometry (in Angstrom), charge = 0, multiplicity = 2:

       Center              X                  Y                   Z               Mass
    ------------   -----------------  -----------------  -----------------  -----------------
         N            0.000000000000     0.000000000000    -0.538795836124    14.003074004430
         C            0.000000000000     0.000000000000     0.628733163876    12.000000000000

  Charge       = 0
  Multiplicity = 2
  Basis Set: CC-PVTZ
    Blend: CC-PVTZ
  Basis Set: (CC-PVTZ AUX)
    Blend: CC-PVTZ-JKFIT

    Orbital Energies [Eh]
    ---------------------

    Alpha Occupied:

       1A1   -14.389671     2A1   -10.297010     3A1    -0.965002
       4A1    -0.505316     5A1    -0.412545     1B2    -0.394591
       1B1    -0.394591

    Alpha Virtual:

       2B2    -0.018824     2B1    -0.018824     6A1     0.165819
       7A1     0.267410     3B2     0.281334     3B1     0.281334
       8A1     0.437234     4B2     0.514169     4B1     0.514169
       9A1     0.594041    10A1     0.619049     1A2     0.619049
       5B1     0.819780     5B2     0.819780    11A1     0.880790
       2A2     1.157580    12A1     1.157580    13A1     1.268346
       6B2     1.504995     6B1     1.504995    14A1     1.743894
       7B2     1.959728     7B1     1.959728    15A1     2.187059
       8B1     2.616034     8B2     2.616034    16A1     2.703846
       3A2     2.703846    17A1     2.735553     9B1     2.781280
       9B2     2.781280    10B2     2.906908    10B1     2.906908
      18A1     2.909786     4A2     2.909787    19A1     3.093759
      11B1     3.396111    11B2     3.396111    20A1     3.873536
      12B2     3.922852    12B1     3.922852     5A2     4.386951
      21A1     4.386953     6A2     4.536975    22A1     4.536979
      13B2     4.789982    13B1     4.789982    23A1     4.949016
      24A1     5.318671    14B2     5.517220    14B1     5.517220
      25A1     5.918683    26A1    12.456565

    Beta Occupied:

       1A1   -14.385000     2A1   -10.281229     3A1    -0.942213
       4A1    -0.438858     1B2    -0.386033     1B1    -0.386033

    Beta Virtual:

       5A1    -0.253522     2B2     0.002965     2B1     0.002965
       6A1     0.172988     3B2     0.290874     3B1     0.290874
       7A1     0.307124     8A1     0.448378     4B2     0.515812
       4B1     0.515812     9A1     0.629348     1A2     0.629348
      10A1     0.640443     5B1     0.849813     5B2     0.849813
      11A1     0.892484     2A2     1.159731    12A1     1.159731
      13A1     1.305634     6B2     1.521813     6B1     1.521813
      14A1     1.770615     7B2     1.974517     7B1     1.974517
      15A1     2.237416     8B1     2.632531     8B2     2.632531
       3A2     2.720014    16A1     2.720014    17A1     2.776932
       9B1     2.816243     9B2     2.816243    10B2     2.944553
      10B1     2.944553    18A1     2.950809     4A2     2.950809
      19A1     3.172485    11B1     3.432414    11B2     3.432414
      20A1     3.908283    12B2     3.918027    12B1     3.918027
       5A2     4.387064    21A1     4.387066     6A2     4.543542
      22A1     4.543546    13B2     4.813411    13B1     4.813411
      23A1     4.986861    24A1     5.348055    14B2     5.543046
      14B1     5.543046    25A1     5.933237    26A1    12.476835

    Final Occupation by Irrep:
             A1    A2    B1    B2
    DOCC [     4,    0,    1,    1 ]
    SOCC [     1,    0,    0,    0 ]
    NA   [     5,    0,    1,    1 ]
    NB   [     4,    0,    1,    1 ]

  @DF-UKS Final Energy:   -92.74573159894636

   => Energetics <=

    Nuclear Repulsion Energy =             19.0363090322724311
    One-Electron Energy =                -162.3056165762421301
    Two-Electron Energy =                  60.3557133851195999
    DFT Exchange-Correlation Energy =      -9.8321374400962718
    Empirical Dispersion Energy =           0.0000000000000000
    VV10 Nonlocal Energy =                  0.0000000000000000
    Total Energy =                        -92.7457315989463638

  UHF NO Occupations:
  HONO-2 :    1 B1 1.9986145
  HONO-1 :    1 B2 1.9986145
  HONO-0 :    5 A1 1.0000000
  LUNO+0 :    2 B2 0.0013855
  LUNO+1 :    2 B1 0.0013855
  LUNO+2 :    6 A1 0.0011448
  LUNO+3 :    7 A1 0.0000979

Computation Completed

Properties will be evaluated at   0.000000,   0.000000,   0.000000 [a0]

Properties computed using the B3LYP density matrix

 Multipole Moments:

 ------------------------------------------------------------------------------------
     Multipole            Electronic (a.u.)      Nuclear  (a.u.)        Total (a.u.)
 ------------------------------------------------------------------------------------

 L = 1.  Multiply by 2.5417464519 to convert [e a0] to [Debye]
 Dipole X            :          0.0000000            0.0000000            0.0000000
 Dipole Y            :          0.0000000            0.0000000            0.0000000
 Dipole Z            :          0.5154483            0.0015649            0.5170133
 Magnitude           :                                                    0.5170133

 L = 2.  Multiply by 1.3450342976 to convert [e a0^2] to [Debye ang]
 Quadrupole XX       :         -8.1468826            0.0000000           -8.1468826
 Quadrupole XY       :          0.0000000            0.0000000            0.0000000
 Quadrupole XZ       :          0.0000000            0.0000000            0.0000000
 Quadrupole YY       :         -8.1468826            0.0000000           -8.1468826
 Quadrupole YZ       :          0.0000000            0.0000000            0.0000000
 Quadrupole ZZ       :        -23.4788217           15.7267517           -7.7520700
 Traceless XX        :          5.1106464           -5.2422506           -0.1316042
 Traceless YY        :          5.1106464           -5.2422506           -0.1316042
 Traceless ZZ        :        -10.2212928           10.4845012            0.2632084

 ------------------------------------------------------------------------------------
  ==> Computing MBIS Charges <==

  Electron Count from Grid (Expected Number): 13.00000 (13.00000)
  Difference:  0.00000

  MBIS Charges: (a.u.)
   Center  Symbol  Z      Pop.       Charge
      1       N    7    7.250506   -0.250506
      2       C    6    5.749494    0.250506

  MBIS Dipoles: [e a0]
   Center  Symbol  Z        X           Y           Z
      1       N    7   -0.000000    0.000000   -0.178682
      2       C    6   -0.000000    0.000000    0.143001

  MBIS Quadrupoles: [e a0^2]
   Center  Symbol  Z      XX        XY        XZ        YY        YZ        ZZ
      1       N    7   -4.2590   -0.0000   -0.0000   -4.2590    0.0000   -4.5165
      2       C    6   -3.8879    0.0000   -0.0000   -3.8879    0.0000   -4.0332

  MBIS Octupoles: [e a0^3]
   Center  Symbol  Z      XXX       XXY       XXZ       XYY       XYZ       XZZ       YYY       YYZ       YZZ       ZZZ
      1       N    7   -0.0000   -0.0000   -0.2292    0.0000    0.0000   -0.0000   -0.0000   -0.2292    0.0000   -0.4153
      2       C    6   -0.0000   -0.0000    0.1370   -0.0000    0.0000   -0.0000    0.0000    0.1370    0.0000    0.2325

  MBIS Radial Moments:
   Center  Symbol  Z      [a0^2]      [a0^3]      [a0^4]
      1       N    7   13.034521   27.698469   70.300403
      2       C    6   11.808917   27.723090   77.669836

  MBIS Valence Widths: [a0]
   Center  Symbol  Z     Width
      1       N    7    0.443323
      2       C    6    0.494402

*** tstop() called on Mac.lan at Sun Aug 10 17:12:39 2025
Module time:
	user time   =       3.84 seconds =       0.06 minutes
	system time =       2.05 seconds =       0.03 minutes
	total time  =          0 seconds =       0.00 minutes
Total time:
	user time   =      22.48 seconds =       0.37 minutes
	system time =       4.59 seconds =       0.08 minutes
	total time  =          2 seconds =       0.03 minutes

    Psi4 stopped on: Sunday, 10 August 2025 05:12PM
    Psi4 wall time for execution: 0:00:02.62

*** Psi4 exiting successfully. Buy a developer a beer!
