                               Psi4 1.9.1 release

  ==> Input File <==

--------------------------------------------------------------------------
molecule {
0 2
O           0.000000           0.000000           0.000000
N           0.000000           0.000000           1.213774
}

set {
basis              cc-pvtz
reference          uks
maxiter            500
DAMPING_PERCENTAGE 1
E_CONVERGENCE      1.0E-8
D_CONVERGENCE      1.0E-8
DIIS_MAX_VECS      400
MBIS_MAXITER       8000
guess              read
}

E, wfn = energy('b3lyp', restart_file='last_wfn', return_wfn=True)
properties('b3lyp','MBIS_CHARGES', wfn=wfn)
wfn.to_file('last_wfn')
--------------------------------------------------------------------------

    Molecular point group: c2v
  Charge       = 0
  Multiplicity = 2
  Basis Set: CC-PVTZ
    Blend: CC-PVTZ
  Basis Set: (CC-PVTZ AUX)
    Blend: CC-PVTZ-JKFIT
  @DF-UKS Final Energy:  -129.93280714672571
    Total Energy =                       -129.9328071467257075
 Dipole X            :          0.0000000            0.0000000            0.0000000
 Dipole Y            :          0.0000000            0.0000000            0.0000000
 Dipole Z            :          0.0296779           -0.0046022            0.0250757
 Magnitude           :                                                    0.0250757
    Molecular point group: c2v

    Geometry (in Angstrom), charge = 0, multiplicity = 2:

       Center              X                  Y                   Z               Mass
    ------------   -----------------  -----------------  -----------------  -----------------
         O            0.000000000000     0.000000000000    -0.566590225754    15.994914619570
         N            0.000000000000     0.000000000000     0.647183774246    14.003074004430

  Charge       = 0
  Multiplicity = 2
  Basis Set: CC-PVTZ
    Blend: CC-PVTZ
  Basis Set: (CC-PVTZ AUX)
    Blend: CC-PVTZ-JKFIT

    Orbital Energies [Eh]
    ---------------------

    Alpha Occupied:

       1A1   -19.272370     2A1   -14.473965     3A1    -1.204801
       4A1    -0.704490     1B1    -0.519737     1B2    -0.490712
       5A1    -0.485492     2B1    -0.244135

    Alpha Virtual:

       2B2    -0.132837     6A1     0.213866     3B1     0.414118
       3B2     0.421469     7A1     0.440298     8A1     0.467868
       9A1     0.555224     4B1     0.594032     4B2     0.600624
       1A2     0.926694    10A1     0.928542     5B1     1.089401
       5B2     1.089594    11A1     1.174756     2A2     1.501481
      12A1     1.502631    13A1     1.579977     6B1     1.961004
       6B2     1.962490    14A1     2.160209     7B1     2.792745
       7B2     2.810330    15A1     3.041924     8B1     3.484754
       8B2     3.492867     3A2     3.743995    16A1     3.745730
       9B1     3.781770     9B2     3.782351    17A1     4.007418
      10B1     4.025745    10B2     4.026531    18A1     4.144267
       4A2     4.340668    19A1     4.346553    20A1     4.632323
      11B1     4.681694    11B2     4.687337    12B1     5.043710
      12B2     5.043827     5A2     5.422902    21A1     5.423958
      22A1     5.998557     6A2     6.142624    23A1     6.144740
      13B1     6.230101    13B2     6.232550    24A1     6.732455
      14B2     6.777989    14B1     6.779007    25A1     7.188453
      26A1    11.805014

    Beta Occupied:

       1A1   -19.262286     2A1   -14.457671     3A1    -1.183113
       4A1    -0.666160     1B2    -0.481604     5A1    -0.463565
       1B1    -0.445970

    Beta Virtual:

       2B2    -0.116958     2B1    -0.074666     6A1     0.224632
       3B2     0.427975     3B1     0.450740     7A1     0.458923
       8A1     0.477281     9A1     0.562214     4B2     0.603764
       4B1     0.620878     1A2     0.954431    10A1     0.954511
       5B2     1.092157     5B1     1.119213    11A1     1.183850
      12A1     1.522940     2A2     1.523201    13A1     1.593815
       6B2     1.965281     6B1     1.988642    14A1     2.172328
       7B2     2.824276     7B1     2.864554    15A1     3.055444
       8B2     3.498572     8B1     3.528949    16A1     3.768997
       3A2     3.769124     9B2     3.828280     9B1     3.828358
      17A1     4.026779    10B2     4.031735    10B1     4.063353
      18A1     4.160935     4A2     4.408731    19A1     4.408929
      20A1     4.650573    11B2     4.693198    11B1     4.729150
      12B2     5.066924    12B1     5.066933     5A2     5.441127
      21A1     5.441187    22A1     6.011782     6A2     6.178805
      23A1     6.178812    13B2     6.235674    13B1     6.265087
      24A1     6.745442    14B2     6.780330    14B1     6.808005
      25A1     7.205027    26A1    11.823675

    Final Occupation by Irrep:
             A1    A2    B1    B2
    DOCC [     5,    0,    1,    1 ]
    SOCC [     0,    0,    1,    0 ]
    NA   [     5,    0,    2,    1 ]
    NB   [     5,    0,    1,    1 ]

  @DF-UKS Final Energy:  -129.93280714474128

   => Energetics <=

    Nuclear Repulsion Energy =             24.4146964735774574
    One-Electron Energy =                -225.4425666377681523
    Two-Electron Energy =                  83.4686390151994431
    DFT Exchange-Correlation Energy =     -12.3735759957500342
    Empirical Dispersion Energy =           0.0000000000000000
    VV10 Nonlocal Energy =                  0.0000000000000000
    Total Energy =                       -129.9328071447412754

  UHF NO Occupations:
  HONO-2 :    5 A1 1.9994914
  HONO-1 :    1 B1 1.9990793
  HONO-0 :    2 B1 1.0000000
  LUNO+0 :    3 B1 0.0009207
  LUNO+1 :    6 A1 0.0005086
  LUNO+2 :    2 B2 0.0002567
  LUNO+3 :    7 A1 0.0000919

Computation Completed

Properties will be evaluated at   0.000000,   0.000000,   0.000000 [a0]

Properties computed using the B3LYP density matrix

 Multipole Moments:

 ------------------------------------------------------------------------------------
     Multipole            Electronic (a.u.)      Nuclear  (a.u.)        Total (a.u.)
 ------------------------------------------------------------------------------------

 L = 1.  Multiply by 2.5417464519 to convert [e a0] to [Debye]
 Dipole X            :          0.0000000            0.0000000            0.0000000
 Dipole Y            :          0.0000000            0.0000000            0.0000000
 Dipole Z            :          0.0296778           -0.0046022            0.0250756
 Magnitude           :                                                    0.0250756

 L = 2.  Multiply by 1.3450342976 to convert [e a0^2] to [Debye ang]
 Quadrupole XX       :         -7.9963367            0.0000000           -7.9963367
 Quadrupole XY       :          0.0000000            0.0000000            0.0000000
 Quadrupole XZ       :          0.0000000            0.0000000            0.0000000
 Quadrupole YY       :         -7.2032495            0.0000000           -7.2032495
 Quadrupole YZ       :          0.0000000            0.0000000            0.0000000
 Quadrupole ZZ       :        -27.9805878           19.6412984           -8.3392894
 Traceless XX        :          6.3970546           -6.5470995           -0.1500448
 Traceless YY        :          7.1901418           -6.5470995            0.6430424
 Traceless ZZ        :        -13.5871965           13.0941990           -0.4929975

 ------------------------------------------------------------------------------------
  ==> Computing MBIS Charges <==

  Electron Count from Grid (Expected Number): 15.00000 (15.00000)
  Difference:  0.00000

  MBIS Charges: (a.u.)
   Center  Symbol  Z      Pop.       Charge
      1       O    8    8.063266   -0.063266
      2       N    7    6.936735    0.063265

  MBIS Dipoles: [e a0]
   Center  Symbol  Z        X           Y           Z
      1       O    8    0.000000    0.000000    0.029574
      2       N    7   -0.000000    0.000000   -0.149611

  MBIS Quadrupoles: [e a0^2]
   Center  Symbol  Z      XX        XY        XZ        YY        YZ        ZZ
      1       O    8   -3.8148    0.0000   -0.0000   -3.5605   -0.0000   -3.7933
      2       N    7   -4.1815    0.0000    0.0000   -3.6428   -0.0000   -4.1389

  MBIS Octupoles: [e a0^3]
   Center  Symbol  Z      XXX       XXY       XXZ       XYY       XYZ       XZZ       YYY       YYZ       YZZ       ZZZ
      1       O    8    0.0000   -0.0000    0.0849    0.0000   -0.0000    0.0000    0.0000    0.0278    0.0000   -0.0848
      2       N    7   -0.0000   -0.0000   -0.2200   -0.0000   -0.0000    0.0000    0.0000   -0.0042   -0.0000    0.0490

  MBIS Radial Moments:
   Center  Symbol  Z      [a0^2]      [a0^3]      [a0^4]
      1       O    8   11.168539   20.720298   46.111284
      2       N    7   11.963160   25.066856   62.629414

  MBIS Valence Widths: [a0]
   Center  Symbol  Z     Width
      1       O    8    0.381881
      2       N    7    0.437080

*** tstop() called on Mac.lan at Sun Aug 10 17:20:39 2025
Module time:
	user time   =       4.17 seconds =       0.07 minutes
	system time =       1.58 seconds =       0.03 minutes
	total time  =          0 seconds =       0.00 minutes
Total time:
	user time   =      19.44 seconds =       0.32 minutes
	system time =       3.81 seconds =       0.06 minutes
	total time  =          2 seconds =       0.03 minutes

    Psi4 stopped on: Sunday, 10 August 2025 05:20PM
    Psi4 wall time for execution: 0:00:02.25

*** Psi4 exiting successfully. Buy a developer a beer!
