                               Psi4 1.9.1 release

  ==> Input File <==

--------------------------------------------------------------------------
molecule {
0 1
H           0.000000           0.000000           0.000000
H           0.000000           0.000000           1.046075
}

set {
basis              cc-pvtz
reference          uks
maxiter            500
DAMPING_PERCENTAGE 1
E_CONVERGENCE      1.0E-8
D_CONVERGENCE      1.0E-8
DIIS_MAX_VECS      400
MBIS_MAXITER       8000
guess              read
}

E, wfn = energy('b3lyp', restart_file='last_wfn', return_wfn=True)
properties('b3lyp','MBIS_CHARGES', wfn=wfn)
wfn.to_file('last_wfn')
--------------------------------------------------------------------------

    Molecular point group: d2h
  Charge       = 0
  Multiplicity = 1
  Basis Set: CC-PVTZ
    Blend: CC-PVTZ
  Basis Set: (CC-PVTZ AUX)
    Blend: CC-PVTZ-JKFIT
  @DF-UKS Final Energy:    -1.14523548768006
    Total Energy =                         -1.1452354876800577
 Dipole X            :          0.0000000            0.0000000            0.0000000
 Dipole Y            :          0.0000000            0.0000000            0.0000000
 Dipole Z            :          0.0000000            0.0000000            0.0000000
 Magnitude           :                                                    0.0000000
    Molecular point group: d2h

    Geometry (in Angstrom), charge = 0, multiplicity = 1:

       Center              X                  Y                   Z               Mass
    ------------   -----------------  -----------------  -----------------  -----------------
         H            0.000000000000     0.000000000000    -0.523037500000     1.007825032230
         H            0.000000000000     0.000000000000     0.523037500000     1.007825032230

  Charge       = 0
  Multiplicity = 1
  Basis Set: CC-PVTZ
    Blend: CC-PVTZ
  Basis Set: (CC-PVTZ AUX)
    Blend: CC-PVTZ-JKFIT

    Orbital Energies [Eh]
    ---------------------

    Alpha Occupied:

       1Ag    -0.382786

    Alpha Virtual:

       1B1u   -0.007308     2Ag     0.216322     2B1u    0.370492
       1B3u    0.494836     1B2u    0.494836     3Ag     0.800062
       1B2g    0.865301     1B3g    0.865301     3B1u    1.280243
       4Ag     2.221201     4B1u    2.325583     2B3u    2.901236
       2B2u    2.901236     5Ag     2.948390     1B1g    2.948390
       6Ag     3.074570     5B1u    3.503706     1Au     3.503706
       3B2u    3.615964     3B3u    3.615964     2B3g    3.691561
       2B2g    3.691561     6B1u    3.785270     3B3g    4.496919
       3B2g    4.496919     7Ag     4.568816     7B1u    5.789080

    Beta Occupied:

       1Ag    -0.382786

    Beta Virtual:

       1B1u   -0.007308     2Ag     0.216322     2B1u    0.370492
       1B3u    0.494836     1B2u    0.494836     3Ag     0.800062
       1B2g    0.865301     1B3g    0.865301     3B1u    1.280243
       4Ag     2.221201     4B1u    2.325583     2B3u    2.901236
       2B2u    2.901236     5Ag     2.948390     1B1g    2.948390
       6Ag     3.074570     5B1u    3.503706     1Au     3.503706
       3B2u    3.615964     3B3u    3.615964     2B3g    3.691561
       2B2g    3.691561     6B1u    3.785270     3B3g    4.496919
       3B2g    4.496919     7Ag     4.568816     7B1u    5.789080

    Final Occupation by Irrep:
             Ag   B1g   B2g   B3g    Au   B1u   B2u   B3u
    DOCC [     1,    0,    0,    0,    0,    0,    0,    0 ]
    SOCC [     0,    0,    0,    0,    0,    0,    0,    0 ]
    NA   [     1,    0,    0,    0,    0,    0,    0,    0 ]
    NB   [     1,    0,    0,    0,    0,    0,    0,    0 ]

  @DF-UKS Final Energy:    -1.14523548759328

   => Energetics <=

    Nuclear Repulsion Energy =              0.5058692834356999
    One-Electron Energy =                  -2.1676001155727569
    Two-Electron Energy =                   1.0252924159039629
    DFT Exchange-Correlation Energy =      -0.5087970713601829
    Empirical Dispersion Energy =           0.0000000000000000
    VV10 Nonlocal Energy =                  0.0000000000000000
    Total Energy =                         -1.1452354875932769

  UHF NO Occupations:
  HONO-0 :    1 Ag 2.0000000
  LUNO+0 :    2 Ag 0.0000000
  LUNO+1 :    3 Ag 0.0000000
  LUNO+2 :    3B3u 0.0000000
  LUNO+3 :    2B3u 0.0000000

Computation Completed

Properties will be evaluated at   0.000000,   0.000000,   0.000000 [a0]

Properties computed using the B3LYP density matrix

 Multipole Moments:

 ------------------------------------------------------------------------------------
     Multipole            Electronic (a.u.)      Nuclear  (a.u.)        Total (a.u.)
 ------------------------------------------------------------------------------------

 L = 1.  Multiply by 2.5417464519 to convert [e a0] to [Debye]
 Dipole X            :          0.0000000            0.0000000            0.0000000
 Dipole Y            :          0.0000000            0.0000000            0.0000000
 Dipole Z            :          0.0000000            0.0000000            0.0000000
 Magnitude           :                                                    0.0000000

 L = 2.  Multiply by 1.3450342976 to convert [e a0^2] to [Debye ang]
 Quadrupole XX       :         -1.8606969            0.0000000           -1.8606969
 Quadrupole XY       :          0.0000000            0.0000000            0.0000000
 Quadrupole XZ       :          0.0000000            0.0000000            0.0000000
 Quadrupole YY       :         -1.8606969            0.0000000           -1.8606969
 Quadrupole YZ       :          0.0000000            0.0000000            0.0000000
 Quadrupole ZZ       :         -3.0907310            1.9538597           -1.1368712
 Traceless XX        :          0.4100114           -0.6512866           -0.2412752
 Traceless YY        :          0.4100114           -0.6512866           -0.2412752
 Traceless ZZ        :         -0.8200227            1.3025732            0.4825504

 ------------------------------------------------------------------------------------
  ==> Computing MBIS Charges <==

  Electron Count from Grid (Expected Number):  2.00000 ( 2.00000)
  Difference: -0.00000

  MBIS Charges: (a.u.)
   Center  Symbol  Z      Pop.       Charge
      1       H    1    1.000000    0.000000
      2       H    1    1.000000    0.000000

  MBIS Dipoles: [e a0]
   Center  Symbol  Z        X           Y           Z
      1       H    1   -0.000000    0.000000   -0.137761
      2       H    1   -0.000000    0.000000    0.137761

  MBIS Quadrupoles: [e a0^2]
   Center  Symbol  Z      XX        XY        XZ        YY        YZ        ZZ
      1       H    1   -0.9303   -0.0000    0.0000   -0.9303   -0.0000   -0.8408
      2       H    1   -0.9303   -0.0000   -0.0000   -0.9303    0.0000   -0.8408

  MBIS Octupoles: [e a0^3]
   Center  Symbol  Z      XXX       XXY       XXZ       XYY       XYZ       XZZ       YYY       YYZ       YZZ       ZZZ
      1       H    1   -0.0000    0.0000   -0.1171   -0.0000    0.0000   -0.0000    0.0000   -0.1171    0.0000   -0.2005
      2       H    1   -0.0000    0.0000    0.1171   -0.0000   -0.0000   -0.0000    0.0000    0.1171    0.0000    0.2005

  MBIS Radial Moments:
   Center  Symbol  Z      [a0^2]      [a0^3]      [a0^4]
      1       H    1    2.701459    6.410200   18.262006
      2       H    1    2.701459    6.410200   18.262006

  MBIS Valence Widths: [a0]
   Center  Symbol  Z     Width
      1       H    1    0.475051
      2       H    1    0.475051

*** tstop() called on Mac.lan at Sun Aug 10 17:00:00 2025
Module time:
	user time   =       0.56 seconds =       0.01 minutes
	system time =       1.43 seconds =       0.02 minutes
	total time  =          0 seconds =       0.00 minutes
Total time:
	user time   =       1.55 seconds =       0.03 minutes
	system time =       3.54 seconds =       0.06 minutes
	total time  =          1 seconds =       0.02 minutes

    Psi4 stopped on: Sunday, 10 August 2025 05:00PM
    Psi4 wall time for execution: 0:00:00.78

*** Psi4 exiting successfully. Buy a developer a beer!
