                               Psi4 1.9.1 release

  ==> Input File <==

--------------------------------------------------------------------------
molecule {
0 1
H           0.000000           0.000000           0.000000
H           0.000000           0.000000           0.759542
}

set {
basis              cc-pvtz
reference          uks
maxiter            500
DAMPING_PERCENTAGE 1
E_CONVERGENCE      1.0E-8
D_CONVERGENCE      1.0E-8
DIIS_MAX_VECS      400
MBIS_MAXITER       8000
guess              read
}

E, wfn = energy('b3lyp', restart_file='last_wfn', return_wfn=True)
properties('b3lyp','MBIS_CHARGES', wfn=wfn)
wfn.to_file('last_wfn')
--------------------------------------------------------------------------

    Molecular point group: d2h
  Charge       = 0
  Multiplicity = 1
  Basis Set: CC-PVTZ
    Blend: CC-PVTZ
  Basis Set: (CC-PVTZ AUX)
    Blend: CC-PVTZ-JKFIT
  @DF-UKS Final Energy:    -1.17982230976668
    Total Energy =                         -1.1798223097666831
 Dipole X            :          0.0000000            0.0000000            0.0000000
 Dipole Y            :          0.0000000            0.0000000            0.0000000
 Dipole Z            :          0.0000000            0.0000000            0.0000000
 Magnitude           :                                                    0.0000000
    Molecular point group: d2h

    Geometry (in Angstrom), charge = 0, multiplicity = 1:

       Center              X                  Y                   Z               Mass
    ------------   -----------------  -----------------  -----------------  -----------------
         H            0.000000000000     0.000000000000    -0.379771000000     1.007825032230
         H            0.000000000000     0.000000000000     0.379771000000     1.007825032230

  Charge       = 0
  Multiplicity = 1
  Basis Set: CC-PVTZ
    Blend: CC-PVTZ
  Basis Set: (CC-PVTZ AUX)
    Blend: CC-PVTZ-JKFIT

    Orbital Energies [Eh]
    ---------------------

    Alpha Occupied:

       1Ag    -0.430684

    Alpha Virtual:

       1B1u    0.054838     2Ag     0.196892     2B1u    0.464151
       1B3u    0.510175     1B2u    0.510175     3Ag     0.905937
       1B2g    0.933947     1B3g    0.933947     3B1u    1.361804
       4B1u    2.037759     4Ag     2.101899     5Ag     2.882086
       1B1g    2.882086     2B3u    3.071698     2B2u    3.071698
       6Ag     3.348210     2B2g    3.613139     2B3g    3.613139
       5B1u    3.776110     1Au     3.776110     3B3u    3.792086
       3B2u    3.792086     6B1u    4.292848     3B2g    5.325060
       3B3g    5.325060     7Ag     5.382271     7B1u    6.445939

    Beta Occupied:

       1Ag    -0.430684

    Beta Virtual:

       1B1u    0.054838     2Ag     0.196892     2B1u    0.464151
       1B2u    0.510175     1B3u    0.510175     3Ag     0.905937
       1B2g    0.933947     1B3g    0.933947     3B1u    1.361804
       4B1u    2.037759     4Ag     2.101899     5Ag     2.882086
       1B1g    2.882086     2B3u    3.071698     2B2u    3.071698
       6Ag     3.348210     2B2g    3.613139     2B3g    3.613139
       5B1u    3.776110     1Au     3.776110     3B3u    3.792086
       3B2u    3.792086     6B1u    4.292848     3B2g    5.325060
       3B3g    5.325060     7Ag     5.382271     7B1u    6.445939

    Final Occupation by Irrep:
             Ag   B1g   B2g   B3g    Au   B1u   B2u   B3u
    DOCC [     1,    0,    0,    0,    0,    0,    0,    0 ]
    SOCC [     0,    0,    0,    0,    0,    0,    0,    0 ]
    NA   [     1,    0,    0,    0,    0,    0,    0,    0 ]
    NB   [     1,    0,    0,    0,    0,    0,    0,    0 ]

  @DF-UKS Final Energy:    -1.17982230990383

   => Energetics <=

    Nuclear Repulsion Energy =              0.6967056603453133
    One-Electron Energy =                  -2.4798188001723487
    Two-Electron Energy =                   1.1723612192110766
    DFT Exchange-Correlation Energy =      -0.5690703892878670
    Empirical Dispersion Energy =           0.0000000000000000
    VV10 Nonlocal Energy =                  0.0000000000000000
    Total Energy =                         -1.1798223099038259

  UHF NO Occupations:
  HONO-0 :    1 Ag 2.0000000
  LUNO+0 :    2 Ag 0.0000000
  LUNO+1 :    3 Ag 0.0000000
  LUNO+2 :    4 Ag 0.0000000
  LUNO+3 :    5 Ag 0.0000000

Computation Completed

Properties will be evaluated at   0.000000,   0.000000,   0.000000 [a0]

Properties computed using the B3LYP density matrix

 Multipole Moments:

 ------------------------------------------------------------------------------------
     Multipole            Electronic (a.u.)      Nuclear  (a.u.)        Total (a.u.)
 ------------------------------------------------------------------------------------

 L = 1.  Multiply by 2.5417464519 to convert [e a0] to [Debye]
 Dipole X            :          0.0000000            0.0000000            0.0000000
 Dipole Y            :          0.0000000            0.0000000            0.0000000
 Dipole Z            :          0.0000000            0.0000000            0.0000000
 Magnitude           :                                                    0.0000000

 L = 2.  Multiply by 1.3450342976 to convert [e a0^2] to [Debye ang]
 Quadrupole XX       :         -1.5836980            0.0000000           -1.5836980
 Quadrupole XY       :          0.0000000            0.0000000            0.0000000
 Quadrupole XZ       :          0.0000000            0.0000000            0.0000000
 Quadrupole YY       :         -1.5836980            0.0000000           -1.5836980
 Quadrupole YZ       :          0.0000000            0.0000000            0.0000000
 Quadrupole ZZ       :         -2.1755737            1.0300809           -1.1454928
 Traceless XX        :          0.1972919           -0.3433603           -0.1460684
 Traceless YY        :          0.1972919           -0.3433603           -0.1460684
 Traceless ZZ        :         -0.3945838            0.6867206            0.2921368

 ------------------------------------------------------------------------------------
  ==> Computing MBIS Charges <==

  Electron Count from Grid (Expected Number):  2.00000 ( 2.00000)
  Difference: -0.00000

  MBIS Charges: (a.u.)
   Center  Symbol  Z      Pop.       Charge
      1       H    1    1.000000    0.000000
      2       H    1    1.000000    0.000000

  MBIS Dipoles: [e a0]
   Center  Symbol  Z        X           Y           Z
      1       H    1   -0.000000    0.000000   -0.089357
      2       H    1    0.000000    0.000000    0.089357

  MBIS Quadrupoles: [e a0^2]
   Center  Symbol  Z      XX        XY        XZ        YY        YZ        ZZ
      1       H    1   -0.7918    0.0000    0.0000   -0.7918   -0.0000   -0.7010
      2       H    1   -0.7918    0.0000   -0.0000   -0.7918    0.0000   -0.7010

  MBIS Octupoles: [e a0^3]
   Center  Symbol  Z      XXX       XXY       XXZ       XYY       XYZ       XZZ       YYY       YYZ       YZZ       ZZZ
      1       H    1   -0.0000   -0.0000   -0.0500    0.0000   -0.0000    0.0000    0.0000   -0.0500    0.0000   -0.0703
      2       H    1   -0.0000    0.0000    0.0500   -0.0000    0.0000   -0.0000   -0.0000    0.0500    0.0000    0.0703

  MBIS Radial Moments:
   Center  Symbol  Z      [a0^2]      [a0^3]      [a0^4]
      1       H    1    2.284701    5.079496   13.725370
      2       H    1    2.284701    5.079496   13.725370

  MBIS Valence Widths: [a0]
   Center  Symbol  Z     Width
      1       H    1    0.434350
      2       H    1    0.434350

*** tstop() called on Mac.lan at Sun Aug 10 16:59:08 2025
Module time:
	user time   =       0.49 seconds =       0.01 minutes
	system time =       1.40 seconds =       0.02 minutes
	total time  =          0 seconds =       0.00 minutes
Total time:
	user time   =       1.49 seconds =       0.02 minutes
	system time =       3.50 seconds =       0.06 minutes
	total time  =          1 seconds =       0.02 minutes

    Psi4 stopped on: Sunday, 10 August 2025 04:59PM
    Psi4 wall time for execution: 0:00:00.77

*** Psi4 exiting successfully. Buy a developer a beer!
