                               Psi4 1.9.1 release

  ==> Input File <==

--------------------------------------------------------------------------
molecule {
0 1
O           0.000000           0.000000           0.000000
C           0.000000           0.000000           1.378935
}

set {
basis              cc-pvtz
reference          uks
maxiter            500
DAMPING_PERCENTAGE 1
E_CONVERGENCE      1.0E-8
D_CONVERGENCE      1.0E-8
DIIS_MAX_VECS      400
MBIS_MAXITER       8000
guess              read
}

E, wfn = energy('b3lyp', restart_file='last_wfn', return_wfn=True)
properties('b3lyp','MBIS_CHARGES', wfn=wfn)
wfn.to_file('last_wfn')
--------------------------------------------------------------------------

    Molecular point group: c2v
  Charge       = 0
  Multiplicity = 1
  Basis Set: CC-PVTZ
    Blend: CC-PVTZ
  Basis Set: (CC-PVTZ AUX)
    Blend: CC-PVTZ-JKFIT
  @DF-UKS Final Energy:  -113.27342146180260
    Total Energy =                       -113.2734214618025987
 Dipole X            :          0.0000000            0.0000000            0.0000000
 Dipole Y            :          0.0000000            0.0000000            0.0000000
 Dipole Z            :          0.3046497           -0.0028401            0.3018096
 Magnitude           :                                                    0.3018096
    Molecular point group: c2v

    Geometry (in Angstrom), charge = 0, multiplicity = 1:

       Center              X                  Y                   Z               Mass
    ------------   -----------------  -----------------  -----------------  -----------------
         O            0.000000000000     0.000000000000    -0.591079495146    15.994914619570
         C            0.000000000000     0.000000000000     0.787855504854    12.000000000000

  Charge       = 0
  Multiplicity = 1
  Basis Set: CC-PVTZ
    Blend: CC-PVTZ
  Basis Set: (CC-PVTZ AUX)
    Blend: CC-PVTZ-JKFIT

    Orbital Energies [Eh]
    ---------------------

    Alpha Occupied:

       1A1   -19.240376     2A1   -10.369690     3A1    -1.046042
       4A1    -0.584738     1B1    -0.410154     1B2    -0.410154
       5A1    -0.396246

    Alpha Virtual:

       2B1    -0.112158     2B2    -0.112158     6A1     0.127444
       3B2     0.287612     3B1     0.287612     7A1     0.303353
       8A1     0.337206     9A1     0.540268     4B2     0.616548
       4B1     0.616548     1A2     0.632642    10A1     0.632642
       5B1     0.773388     5B2     0.773388    11A1     1.052767
      12A1     1.185345    13A1     1.465860     2A2     1.465860
       6B1     1.714433     6B2     1.714433     7B1     1.984826
       7B2     1.984826    14A1     2.011777    15A1     2.155207
       8B1     2.619979     8B2     2.619979     3A2     2.691124
      16A1     2.691124     9B2     2.864626     9B1     2.864626
       4A2     2.892591    17A1     2.892593    18A1     3.011003
      10B2     3.120269    10B1     3.120269    19A1     3.178456
      11B2     3.797816    11B1     3.797816    20A1     3.805922
      12B2     5.075358    12B1     5.075358    21A1     5.224893
       5A2     5.224895    22A1     5.305730    13B1     5.650000
      13B2     5.650000     6A2     6.182930    23A1     6.182941
      24A1     6.184905    14B1     6.617461    14B2     6.617461
      25A1     7.170405    26A1     9.120534

    Beta Occupied:

       1A1   -19.240376     2A1   -10.369690     3A1    -1.046042
       4A1    -0.584738     1B1    -0.410154     1B2    -0.410154
       5A1    -0.396246

    Beta Virtual:

       2B1    -0.112158     2B2    -0.112158     6A1     0.127444
       3B2     0.287612     3B1     0.287612     7A1     0.303353
       8A1     0.337206     9A1     0.540268     4B2     0.616548
       4B1     0.616548     1A2     0.632642    10A1     0.632642
       5B1     0.773388     5B2     0.773388    11A1     1.052767
      12A1     1.185345    13A1     1.465860     2A2     1.465860
       6B1     1.714433     6B2     1.714433     7B1     1.984826
       7B2     1.984826    14A1     2.011777    15A1     2.155207
       8B1     2.619979     8B2     2.619979     3A2     2.691124
      16A1     2.691124     9B2     2.864626     9B1     2.864626
       4A2     2.892591    17A1     2.892593    18A1     3.011003
      10B2     3.120269    10B1     3.120269    19A1     3.178456
      11B2     3.797816    11B1     3.797816    20A1     3.805922
      12B2     5.075358    12B1     5.075358    21A1     5.224893
       5A2     5.224895    22A1     5.305730    13B1     5.650000
      13B2     5.650000     6A2     6.182930    23A1     6.182941
      24A1     6.184905    14B1     6.617461    14B2     6.617461
      25A1     7.170405    26A1     9.120534

    Final Occupation by Irrep:
             A1    A2    B1    B2
    DOCC [     5,    0,    1,    1 ]
    SOCC [     0,    0,    0,    0 ]
    NA   [     5,    0,    1,    1 ]
    NB   [     5,    0,    1,    1 ]

  @DF-UKS Final Energy:  -113.27342145387871

   => Energetics <=

    Nuclear Repulsion Energy =             18.4203795771084202
    One-Electron Energy =                -190.5014926809818405
    Two-Electron Energy =                  69.8823030099880214
    DFT Exchange-Correlation Energy =     -11.0746113599933214
    Empirical Dispersion Energy =           0.0000000000000000
    VV10 Nonlocal Energy =                  0.0000000000000000
    Total Energy =                       -113.2734214538787114

  UHF NO Occupations:
  HONO-2 :    4 A1 2.0000000
  HONO-1 :    1 B2 2.0000000
  HONO-0 :    5 A1 2.0000000
  LUNO+0 :    6 A1 0.0000000
  LUNO+1 :    7 A1 0.0000000
  LUNO+2 :    8 A1 0.0000000
  LUNO+3 :    9 A1 0.0000000

Computation Completed

Properties will be evaluated at   0.000000,   0.000000,   0.000000 [a0]

Properties computed using the B3LYP density matrix

 Multipole Moments:

 ------------------------------------------------------------------------------------
     Multipole            Electronic (a.u.)      Nuclear  (a.u.)        Total (a.u.)
 ------------------------------------------------------------------------------------

 L = 1.  Multiply by 2.5417464519 to convert [e a0] to [Debye]
 Dipole X            :          0.0000000            0.0000000            0.0000000
 Dipole Y            :          0.0000000            0.0000000            0.0000000
 Dipole Z            :          0.3046498           -0.0028401            0.3018096
 Magnitude           :                                                    0.3018096

 L = 2.  Multiply by 1.3450342976 to convert [e a0^2] to [Debye ang]
 Quadrupole XX       :         -7.9397903            0.0000000           -7.9397903
 Quadrupole XY       :          0.0000000            0.0000000            0.0000000
 Quadrupole XZ       :          0.0000000            0.0000000            0.0000000
 Quadrupole YY       :         -7.9397903            0.0000000           -7.9397903
 Quadrupole YZ       :          0.0000000            0.0000000            0.0000000
 Quadrupole ZZ       :        -32.1910904           23.2808341           -8.9102562
 Traceless XX        :          8.0837667           -7.7602780            0.3234886
 Traceless YY        :          8.0837667           -7.7602780            0.3234886
 Traceless ZZ        :        -16.1675334           15.5205561           -0.6469773

 ------------------------------------------------------------------------------------
  ==> Computing MBIS Charges <==

  Electron Count from Grid (Expected Number): 14.00000 (14.00000)
  Difference: -0.00000

  MBIS Charges: (a.u.)
   Center  Symbol  Z      Pop.       Charge
      1       O    8    8.246434   -0.246434
      2       C    6    5.753566    0.246434

  MBIS Dipoles: [e a0]
   Center  Symbol  Z        X           Y           Z
      1       O    8   -0.000000    0.000000   -0.104882
      2       C    6   -0.000000    0.000000   -0.235469

  MBIS Quadrupoles: [e a0^2]
   Center  Symbol  Z      XX        XY        XZ        YY        YZ        ZZ
      1       O    8   -3.9766   -0.0000   -0.0000   -3.9766    0.0000   -4.0564
      2       C    6   -3.9632   -0.0000    0.0000   -3.9632    0.0000   -4.6258

  MBIS Octupoles: [e a0^3]
   Center  Symbol  Z      XXX       XXY       XXZ       XYY       XYZ       XZZ       YYY       YYZ       YZZ       ZZZ
      1       O    8   -0.0000   -0.0000   -0.0775   -0.0000    0.0000    0.0000   -0.0000   -0.0775   -0.0000   -0.3054
      2       C    6   -0.0000    0.0000   -0.0705   -0.0000    0.0000    0.0000    0.0000   -0.0705    0.0000   -0.3666

  MBIS Radial Moments:
   Center  Symbol  Z      [a0^2]      [a0^3]      [a0^4]
      1       O    8   12.009679   22.759155   51.600157
      2       C    6   12.552102   30.184013   86.059107

  MBIS Valence Widths: [a0]
   Center  Symbol  Z     Width
      1       O    8    0.391092
      2       C    6    0.511775

*** tstop() called on Mac.lan at Sun Aug 10 17:18:23 2025
Module time:
	user time   =      10.21 seconds =       0.17 minutes
	system time =       2.91 seconds =       0.05 minutes
	total time  =          2 seconds =       0.03 minutes
Total time:
	user time   =      55.26 seconds =       0.92 minutes
	system time =       7.46 seconds =       0.12 minutes
	total time  =          7 seconds =       0.12 minutes

    Psi4 stopped on: Sunday, 10 August 2025 05:18PM
    Psi4 wall time for execution: 0:00:06.39

*** Psi4 exiting successfully. Buy a developer a beer!
