                               Psi4 1.9.1 release

  ==> Input File <==

--------------------------------------------------------------------------
molecule {
0 2
N           0.000000           0.000000           0.000000
C           0.000000           0.000000           1.124814
}

set {
basis              cc-pvtz
reference          uks
maxiter            500
DAMPING_PERCENTAGE 1
E_CONVERGENCE      1.0E-8
D_CONVERGENCE      1.0E-8
DIIS_MAX_VECS      400
MBIS_MAXITER       8000
guess              read
}

E, wfn = energy('b3lyp', restart_file='last_wfn', return_wfn=True)
properties('b3lyp','MBIS_CHARGES', wfn=wfn)
wfn.to_file('last_wfn')
--------------------------------------------------------------------------

    Molecular point group: c2v
  Charge       = 0
  Multiplicity = 2
  Basis Set: CC-PVTZ
    Blend: CC-PVTZ
  Basis Set: (CC-PVTZ AUX)
    Blend: CC-PVTZ-JKFIT
  @DF-UKS Final Energy:   -92.74258730230127
    Total Energy =                        -92.7425873023012741
 Dipole X            :          0.0000000            0.0000000            0.0000000
 Dipole Y            :          0.0000000            0.0000000            0.0000000
 Dipole Z            :          0.5455969            0.0015077            0.5471046
 Magnitude           :                                                    0.5471046
    Molecular point group: c2v

    Geometry (in Angstrom), charge = 0, multiplicity = 2:

       Center              X                  Y                   Z               Mass
    ------------   -----------------  -----------------  -----------------  -----------------
         N            0.000000000000     0.000000000000    -0.519083551341    14.003074004430
         C            0.000000000000     0.000000000000     0.605730448659    12.000000000000

  Charge       = 0
  Multiplicity = 2
  Basis Set: CC-PVTZ
    Blend: CC-PVTZ
  Basis Set: (CC-PVTZ AUX)
    Blend: CC-PVTZ-JKFIT

    Orbital Energies [Eh]
    ---------------------

    Alpha Occupied:

       1A1   -14.376512     2A1   -10.284865     3A1    -0.979542
       4A1    -0.496478     5A1    -0.411494     1B2    -0.403859
       1B1    -0.403859

    Alpha Virtual:

       2B2    -0.002723     2B1    -0.002723     6A1     0.167047
       7A1     0.264025     3B2     0.279593     3B1     0.279593
       8A1     0.439486     4B1     0.517119     4B2     0.517119
       9A1     0.618125     1A2     0.618125    10A1     0.641787
       5B2     0.835792     5B1     0.835792    11A1     0.890329
       2A2     1.170254    12A1     1.170254    13A1     1.320364
       6B2     1.522595     6B1     1.522595    14A1     1.769150
       7B2     1.950376     7B1     1.950376    15A1     2.211502
       8B1     2.613106     8B2     2.613106    16A1     2.722833
       3A2     2.722833    17A1     2.728891     9B2     2.803641
       9B1     2.803641    18A1     2.911116     4A2     2.911117
      10B1     2.931301    10B2     2.931301    19A1     3.122954
      11B2     3.423781    11B1     3.423781    12B2     3.937934
      12B1     3.937934    20A1     3.991854     5A2     4.437059
      21A1     4.437061     6A2     4.570110    22A1     4.570112
      13B2     4.820314    13B1     4.820314    23A1     5.020203
      24A1     5.350669    14B2     5.634526    14B1     5.634526
      25A1     6.175416    26A1    13.199517

    Beta Occupied:

       1A1   -14.372316     2A1   -10.268503     3A1    -0.957461
       4A1    -0.430506     1B2    -0.394919     1B1    -0.394919

    Beta Virtual:

       5A1    -0.252185     2B2     0.019623     2B1     0.019623
       6A1     0.174119     3B2     0.289626     3B1     0.289626
       7A1     0.304924     8A1     0.450775     4B1     0.519199
       4B2     0.519199     9A1     0.628973     1A2     0.628973
      10A1     0.687187     5B2     0.865979     5B1     0.865979
      11A1     0.901029     2A2     1.172651    12A1     1.172651
      13A1     1.359332     6B2     1.538093     6B1     1.538093
      14A1     1.795309     7B2     1.965946     7B1     1.965946
      15A1     2.262156     8B1     2.630366     8B2     2.630366
      16A1     2.737121     3A2     2.737121    17A1     2.769076
       9B2     2.850214     9B1     2.850214    18A1     2.956548
       4A2     2.956549    10B1     2.961259    10B2     2.961259
      19A1     3.205001    11B2     3.458944    11B1     3.458944
      12B2     3.933375    12B1     3.933375    20A1     4.024475
       5A2     4.433948    21A1     4.433951     6A2     4.579193
      22A1     4.579195    13B2     4.841130    13B1     4.841130
      23A1     5.054997    24A1     5.378616    14B2     5.660442
      14B1     5.660442    25A1     6.189718    26A1    13.220936

    Final Occupation by Irrep:
             A1    A2    B1    B2
    DOCC [     4,    0,    1,    1 ]
    SOCC [     1,    0,    0,    0 ]
    NA   [     5,    0,    1,    1 ]
    NB   [     4,    0,    1,    1 ]

  @DF-UKS Final Energy:   -92.74258730130289

   => Energetics <=

    Nuclear Repulsion Energy =             19.7592160554011613
    One-Electron Energy =                -163.7213843889497866
    Two-Electron Energy =                  61.0904130409339032
    DFT Exchange-Correlation Energy =      -9.8708320086881809
    Empirical Dispersion Energy =           0.0000000000000000
    VV10 Nonlocal Energy =                  0.0000000000000000
    Total Energy =                        -92.7425873013029047

  UHF NO Occupations:
  HONO-2 :    1 B2 1.9986463
  HONO-1 :    1 B1 1.9986463
  HONO-0 :    5 A1 1.0000000
  LUNO+0 :    2 B2 0.0013537
  LUNO+1 :    2 B1 0.0013537
  LUNO+2 :    6 A1 0.0009788
  LUNO+3 :    7 A1 0.0000852

Computation Completed

Properties will be evaluated at   0.000000,   0.000000,   0.000000 [a0]

Properties computed using the B3LYP density matrix

 Multipole Moments:

 ------------------------------------------------------------------------------------
     Multipole            Electronic (a.u.)      Nuclear  (a.u.)        Total (a.u.)
 ------------------------------------------------------------------------------------

 L = 1.  Multiply by 2.5417464519 to convert [e a0] to [Debye]
 Dipole X            :          0.0000000            0.0000000            0.0000000
 Dipole Y            :          0.0000000            0.0000000            0.0000000
 Dipole Z            :          0.5455969            0.0015077            0.5471046
 Magnitude           :                                                    0.5471046

 L = 2.  Multiply by 1.3450342976 to convert [e a0^2] to [Debye ang]
 Quadrupole XX       :         -8.0316566            0.0000000           -8.0316566
 Quadrupole XY       :          0.0000000            0.0000000            0.0000000
 Quadrupole XZ       :          0.0000000            0.0000000            0.0000000
 Quadrupole YY       :         -8.0316566            0.0000000           -8.0316566
 Quadrupole YZ       :          0.0000000            0.0000000            0.0000000
 Quadrupole ZZ       :        -22.3629916           14.5970503           -7.7659413
 Traceless XX        :          4.7771117           -4.8656834           -0.0885718
 Traceless YY        :          4.7771117           -4.8656834           -0.0885718
 Traceless ZZ        :         -9.5542233            9.7313669            0.1771435

 ------------------------------------------------------------------------------------
  ==> Computing MBIS Charges <==

  Electron Count from Grid (Expected Number): 13.00000 (13.00000)
  Difference: -0.00000

  MBIS Charges: (a.u.)
   Center  Symbol  Z      Pop.       Charge
      1       N    7    7.270538   -0.270538
      2       C    6    5.729461    0.270539

  MBIS Dipoles: [e a0]
   Center  Symbol  Z        X           Y           Z
      1       N    7   -0.000000   -0.000000   -0.165149
      2       C    6   -0.000000   -0.000000    0.137200

  MBIS Quadrupoles: [e a0^2]
   Center  Symbol  Z      XX        XY        XZ        YY        YZ        ZZ
      1       N    7   -4.2280   -0.0000   -0.0000   -4.2280   -0.0000   -4.5349
      2       C    6   -3.8037    0.0000   -0.0000   -3.8037    0.0000   -3.9633

  MBIS Octupoles: [e a0^3]
   Center  Symbol  Z      XXX       XXY       XXZ       XYY       XYZ       XZZ       YYY       YYZ       YZZ       ZZZ
      1       N    7   -0.0000   -0.0000   -0.2005   -0.0000    0.0000   -0.0000   -0.0000   -0.2005    0.0000   -0.3088
      2       C    6   -0.0000   -0.0000    0.0982   -0.0000    0.0000   -0.0000    0.0000    0.0982    0.0000    0.1436

  MBIS Radial Moments:
   Center  Symbol  Z      [a0^2]      [a0^3]      [a0^4]
      1       N    7   12.990917   27.523054   69.691662
      2       C    6   11.570591   26.986112   75.199696

  MBIS Valence Widths: [a0]
   Center  Symbol  Z     Width
      1       N    7    0.441552
      2       C    6    0.490080

*** tstop() called on Mac.lan at Sun Aug 10 17:12:45 2025
Module time:
	user time   =       3.63 seconds =       0.06 minutes
	system time =       2.45 seconds =       0.04 minutes
	total time  =          1 seconds =       0.02 minutes
Total time:
	user time   =      19.22 seconds =       0.32 minutes
	system time =       4.98 seconds =       0.08 minutes
	total time  =          2 seconds =       0.03 minutes

    Psi4 stopped on: Sunday, 10 August 2025 05:12PM
    Psi4 wall time for execution: 0:00:02.34

*** Psi4 exiting successfully. Buy a developer a beer!
