                               Psi4 1.9.1 release

  ==> Input File <==

--------------------------------------------------------------------------
molecule {
0 3
O           0.000000           0.000000           0.000000
O           0.000000           0.000000           1.365784
}

set {
basis              cc-pvtz
reference          uks
maxiter            500
DAMPING_PERCENTAGE 1
E_CONVERGENCE      1.0E-8
D_CONVERGENCE      1.0E-8
DIIS_MAX_VECS      400
MBIS_MAXITER       8000
guess              read
}

E, wfn = energy('b3lyp', restart_file='last_wfn', return_wfn=True)
properties('b3lyp','MBIS_CHARGES', wfn=wfn)
wfn.to_file('last_wfn')
--------------------------------------------------------------------------

    Molecular point group: d2h
  Charge       = 0
  Multiplicity = 3
  Basis Set: CC-PVTZ
    Blend: CC-PVTZ
  Basis Set: (CC-PVTZ AUX)
    Blend: CC-PVTZ-JKFIT
  @DF-UKS Final Energy:  -150.35506309292012
    Total Energy =                       -150.3550630929201191
 Dipole X            :          0.0000000            0.0000000            0.0000000
 Dipole Y            :          0.0000000            0.0000000            0.0000000
 Dipole Z            :          0.0000000            0.0000000            0.0000000
 Magnitude           :                                                    0.0000000
    Molecular point group: d2h

    Geometry (in Angstrom), charge = 0, multiplicity = 3:

       Center              X                  Y                   Z               Mass
    ------------   -----------------  -----------------  -----------------  -----------------
         O            0.000000000000     0.000000000000    -0.682892000000    15.994914619570
         O            0.000000000000     0.000000000000     0.682892000000    15.994914619570

  Charge       = 0
  Multiplicity = 3
  Basis Set: CC-PVTZ
    Blend: CC-PVTZ
  Basis Set: (CC-PVTZ AUX)
    Blend: CC-PVTZ-JKFIT

    Orbital Energies [Eh]
    ---------------------

    Alpha Occupied:

       1Ag   -19.306288     1B1u  -19.306206     2Ag    -1.205814
       2B1u   -0.888688     3Ag    -0.531564     1B3u   -0.525797
       1B2u   -0.525797     1B2g   -0.355984     1B3g   -0.355984

    Alpha Virtual:

       3B1u    0.017860     4B1u    0.470675     2B3u    0.503129
       2B2u    0.503129     4Ag     0.566626     2B2g    0.606946
       2B3g    0.606946     5Ag     0.672906     5B1u    1.176470
       3B2u    1.216432     3B3u    1.216432     6Ag     1.245202
       1B1g    1.245203     6B1u    1.540763     1Au     1.540763
       7Ag     1.870891     3B3g    2.039391     3B2g    2.039391
       7B1u    2.178848     4B3u    3.367142     4B2u    3.367142
       8Ag     3.437697     4B2g    3.590758     4B3g    3.590758
       8B1u    4.443510     5B3u    4.605249     5B2u    4.605249
       9Ag     4.688112     2B1g    4.688113    10Ag     4.722089
       6B3u    4.952192     6B2u    4.952192     5B2g    5.060185
       5B3g    5.060185     9B1u    5.374636     2Au     5.374637
       6B2g    5.926532     6B3g    5.926532     3B1g    5.983468
      11Ag     5.983469     3Au     6.159858    10B1u    6.159860
       7B2u    6.181042     7B3u    6.181042    11B1u    6.190193
      12B1u    6.534710    12Ag     6.619851     7B2g    6.848581
       7B3g    6.848581    13Ag     7.479123    13B1u    9.524580

    Beta Occupied:

       1Ag   -19.276037     1B1u  -19.275858     2Ag    -1.142661
       2B1u   -0.798896     3Ag    -0.497848     1B3u   -0.419811
       1B2u   -0.419811

    Beta Virtual:

       1B2g   -0.164067     1B3g   -0.164067     3B1u    0.057915
       4B1u    0.484067     2B3u    0.542516     2B2u    0.542516
       4Ag     0.578512     2B2g    0.646650     2B3g    0.646650
       5Ag     0.693179     5B1u    1.209310     3B2u    1.241984
       3B3u    1.241984     6Ag     1.290072     1B1g    1.290072
       6B1u    1.600106     1Au     1.600106     7Ag     1.902674
       3B3g    2.074391     3B2g    2.074391     7B1u    2.198331
       4B3u    3.440479     4B2u    3.440479     8Ag     3.456772
       4B2g    3.668034     4B3g    3.668034     8B1u    4.477253
       5B3u    4.640202     5B2u    4.640202     9Ag     4.733077
       2B1g    4.733078    10Ag     4.757151     6B3u    5.024820
       6B2u    5.024820     5B2g    5.134485     5B3g    5.134485
       9B1u    5.427645     2Au     5.427647     6B2g    5.978442
       6B3g    5.978442     3B1g    6.093049    11Ag     6.093050
      10B1u    6.223624     7B2u    6.241378     7B3u    6.241378
       3Au     6.265718    11B1u    6.265719    12B1u    6.575219
      12Ag     6.646368     7B2g    6.892578     7B3g    6.892578
      13Ag     7.537915    13B1u    9.564675

    Final Occupation by Irrep:
             Ag   B1g   B2g   B3g    Au   B1u   B2u   B3u
    DOCC [     3,    0,    0,    0,    0,    2,    1,    1 ]
    SOCC [     0,    0,    1,    1,    0,    0,    0,    0 ]
    NA   [     3,    0,    1,    1,    0,    2,    1,    1 ]
    NB   [     3,    0,    0,    0,    0,    2,    1,    1 ]

  @DF-UKS Final Energy:  -150.35506309285228

   => Energetics <=

    Nuclear Repulsion Energy =             24.7969968039455679
    One-Electron Energy =                -255.6405712942195407
    Two-Electron Energy =                  94.1695819434800114
    DFT Exchange-Correlation Energy =     -13.6810705460583151
    Empirical Dispersion Energy =           0.0000000000000000
    VV10 Nonlocal Energy =                  0.0000000000000000
    Total Energy =                       -150.3550630928522764

  UHF NO Occupations:
  HONO-2 :    1B2u 1.9980906
  HONO-1 :    1B2g 1.0000000
  HONO-0 :    1B3g 1.0000000
  LUNO+0 :    2B2u 0.0019094
  LUNO+1 :    2B3u 0.0019094
  LUNO+2 :    3B1u 0.0007229
  LUNO+3 :    4 Ag 0.0003060

Computation Completed

Properties will be evaluated at   0.000000,   0.000000,   0.000000 [a0]

Properties computed using the B3LYP density matrix

 Multipole Moments:

 ------------------------------------------------------------------------------------
     Multipole            Electronic (a.u.)      Nuclear  (a.u.)        Total (a.u.)
 ------------------------------------------------------------------------------------

 L = 1.  Multiply by 2.5417464519 to convert [e a0] to [Debye]
 Dipole X            :          0.0000000            0.0000000            0.0000000
 Dipole Y            :          0.0000000            0.0000000            0.0000000
 Dipole Z            :          0.0000000            0.0000000            0.0000000
 Magnitude           :                                                    0.0000000

 L = 2.  Multiply by 1.3450342976 to convert [e a0^2] to [Debye ang]
 Quadrupole XX       :         -7.5634013            0.0000000           -7.5634013
 Quadrupole XY       :          0.0000000            0.0000000            0.0000000
 Quadrupole XZ       :          0.0000000            0.0000000            0.0000000
 Quadrupole YY       :         -7.5634013            0.0000000           -7.5634013
 Quadrupole YZ       :          0.0000000            0.0000000            0.0000000
 Quadrupole ZZ       :        -34.1584196           26.6453707           -7.5130489
 Traceless XX        :          8.8650061           -8.8817902           -0.0167841
 Traceless YY        :          8.8650061           -8.8817902           -0.0167841
 Traceless ZZ        :        -17.7300122           17.7635805            0.0335683

 ------------------------------------------------------------------------------------
  ==> Computing MBIS Charges <==

  Electron Count from Grid (Expected Number): 16.00000 (16.00000)
  Difference: -0.00000

  MBIS Charges: (a.u.)
   Center  Symbol  Z      Pop.       Charge
      1       O    8    8.000000    0.000000
      2       O    8    8.000000    0.000000

  MBIS Dipoles: [e a0]
   Center  Symbol  Z        X           Y           Z
      1       O    8   -0.000000   -0.000000    0.039269
      2       O    8   -0.000000    0.000000   -0.039269

  MBIS Quadrupoles: [e a0^2]
   Center  Symbol  Z      XX        XY        XZ        YY        YZ        ZZ
      1       O    8   -3.7817   -0.0000   -0.0000   -3.7817    0.0000   -3.6552
      2       O    8   -3.7817   -0.0000    0.0000   -3.7817   -0.0000   -3.6552

  MBIS Octupoles: [e a0^3]
   Center  Symbol  Z      XXX       XXY       XXZ       XYY       XYZ       XZZ       YYY       YYZ       YZZ       ZZZ
      1       O    8   -0.0000   -0.0000    0.0162   -0.0000   -0.0000   -0.0000    0.0000    0.0162    0.0000   -0.2602
      2       O    8   -0.0000   -0.0000   -0.0162   -0.0000    0.0000   -0.0000   -0.0000   -0.0162   -0.0000    0.2602

  MBIS Radial Moments:
   Center  Symbol  Z      [a0^2]      [a0^3]      [a0^4]
      1       O    8   11.218575   21.035387   47.309749
      2       O    8   11.218575   21.035387   47.309749

  MBIS Valence Widths: [a0]
   Center  Symbol  Z     Width
      1       O    8    0.384576
      2       O    8    0.384576

*** tstop() called on Mac.lan at Sun Aug 10 17:01:48 2025
Module time:
	user time   =       3.53 seconds =       0.06 minutes
	system time =       2.60 seconds =       0.04 minutes
	total time  =          0 seconds =       0.00 minutes
Total time:
	user time   =      16.36 seconds =       0.27 minutes
	system time =       5.14 seconds =       0.09 minutes
	total time  =          2 seconds =       0.03 minutes

    Psi4 stopped on: Sunday, 10 August 2025 05:01PM
    Psi4 wall time for execution: 0:00:02.10

*** Psi4 exiting successfully. Buy a developer a beer!
