                               Psi4 1.9.1 release

  ==> Input File <==

--------------------------------------------------------------------------
molecule {
0 1
H           0.000000           0.000000           0.000000
H           0.000000           0.000000           0.909631
}

set {
basis              cc-pvtz
reference          uks
maxiter            500
DAMPING_PERCENTAGE 1
E_CONVERGENCE      1.0E-8
D_CONVERGENCE      1.0E-8
DIIS_MAX_VECS      400
MBIS_MAXITER       8000
guess              read
}

E, wfn = energy('b3lyp', restart_file='last_wfn', return_wfn=True)
properties('b3lyp','MBIS_CHARGES', wfn=wfn)
wfn.to_file('last_wfn')
--------------------------------------------------------------------------

    Molecular point group: d2h
  Charge       = 0
  Multiplicity = 1
  Basis Set: CC-PVTZ
    Blend: CC-PVTZ
  Basis Set: (CC-PVTZ AUX)
    Blend: CC-PVTZ-JKFIT
  @DF-UKS Final Energy:    -1.16669036461558
    Total Energy =                         -1.1666903646155844
 Dipole X            :          0.0000000            0.0000000            0.0000000
 Dipole Y            :          0.0000000            0.0000000            0.0000000
 Dipole Z            :          0.0000000            0.0000000            0.0000000
 Magnitude           :                                                    0.0000000
    Molecular point group: d2h

    Geometry (in Angstrom), charge = 0, multiplicity = 1:

       Center              X                  Y                   Z               Mass
    ------------   -----------------  -----------------  -----------------  -----------------
         H            0.000000000000     0.000000000000    -0.454815500000     1.007825032230
         H            0.000000000000     0.000000000000     0.454815500000     1.007825032230

  Charge       = 0
  Multiplicity = 1
  Basis Set: CC-PVTZ
    Blend: CC-PVTZ
  Basis Set: (CC-PVTZ AUX)
    Blend: CC-PVTZ-JKFIT

    Orbital Energies [Eh]
    ---------------------

    Alpha Occupied:

       1Ag    -0.403292

    Alpha Virtual:

       1B1u    0.023218     2Ag     0.207225     2B1u    0.410035
       1B2u    0.499943     1B3u    0.499943     3Ag     0.853920
       1B3g    0.899946     1B2g    0.899946     3B1u    1.317083
       4Ag     2.170336     4B1u    2.173871     1B1g    2.900666
       5Ag     2.900666     2B3u    2.985046     2B2u    2.985046
       6Ag     3.229408     1Au     3.626044     5B1u    3.626044
       3B2u    3.676819     3B3u    3.676819     2B3g    3.682394
       2B2g    3.682394     6B1u    3.918008     3B2g    4.845373
       3B3g    4.845373     7Ag     4.884703     7B1u    6.024480

    Beta Occupied:

       1Ag    -0.403292

    Beta Virtual:

       1B1u    0.023218     2Ag     0.207225     2B1u    0.410035
       1B2u    0.499943     1B3u    0.499943     3Ag     0.853920
       1B3g    0.899946     1B2g    0.899946     3B1u    1.317083
       4Ag     2.170336     4B1u    2.173871     1B1g    2.900666
       5Ag     2.900666     2B2u    2.985046     2B3u    2.985046
       6Ag     3.229408     1Au     3.626044     5B1u    3.626044
       3B2u    3.676819     3B3u    3.676819     2B3g    3.682394
       2B2g    3.682394     6B1u    3.918008     3B2g    4.845373
       3B3g    4.845373     7Ag     4.884703     7B1u    6.024480

    Final Occupation by Irrep:
             Ag   B1g   B2g   B3g    Au   B1u   B2u   B3u
    DOCC [     1,    0,    0,    0,    0,    0,    0,    0 ]
    SOCC [     0,    0,    0,    0,    0,    0,    0,    0 ]
    NA   [     1,    0,    0,    0,    0,    0,    0,    0 ]
    NB   [     1,    0,    0,    0,    0,    0,    0,    0 ]

  @DF-UKS Final Energy:    -1.16669036450322

   => Energetics <=

    Nuclear Repulsion Energy =              0.5817493144692739
    One-Electron Energy =                  -2.3030807713439088
    Two-Electron Energy =                   1.0890877816494513
    DFT Exchange-Correlation Energy =      -0.5344466892780353
    Empirical Dispersion Energy =           0.0000000000000000
    VV10 Nonlocal Energy =                  0.0000000000000000
    Total Energy =                         -1.1666903645032187

  UHF NO Occupations:
  HONO-0 :    1 Ag 2.0000000
  LUNO+0 :    2 Ag 0.0000000
  LUNO+1 :    3 Ag 0.0000000
  LUNO+2 :    4 Ag 0.0000000
  LUNO+3 :    5 Ag 0.0000000

Computation Completed

Properties will be evaluated at   0.000000,   0.000000,   0.000000 [a0]

Properties computed using the B3LYP density matrix

 Multipole Moments:

 ------------------------------------------------------------------------------------
     Multipole            Electronic (a.u.)      Nuclear  (a.u.)        Total (a.u.)
 ------------------------------------------------------------------------------------

 L = 1.  Multiply by 2.5417464519 to convert [e a0] to [Debye]
 Dipole X            :          0.0000000            0.0000000            0.0000000
 Dipole Y            :          0.0000000            0.0000000            0.0000000
 Dipole Z            :          0.0000000            0.0000000            0.0000000
 Magnitude           :                                                    0.0000000

 L = 2.  Multiply by 1.3450342976 to convert [e a0^2] to [Debye ang]
 Quadrupole XX       :         -1.7355276            0.0000000           -1.7355276
 Quadrupole XY       :          0.0000000            0.0000000            0.0000000
 Quadrupole XZ       :          0.0000000            0.0000000            0.0000000
 Quadrupole YY       :         -1.7355276            0.0000000           -1.7355276
 Quadrupole YZ       :          0.0000000            0.0000000            0.0000000
 Quadrupole ZZ       :         -2.6254689            1.4774005           -1.1480684
 Traceless XX        :          0.2966471           -0.4924668           -0.1958197
 Traceless YY        :          0.2966471           -0.4924668           -0.1958197
 Traceless ZZ        :         -0.5932942            0.9849337            0.3916395

 ------------------------------------------------------------------------------------
  ==> Computing MBIS Charges <==

  Electron Count from Grid (Expected Number):  2.00000 ( 2.00000)
  Difference:  0.00000

  MBIS Charges: (a.u.)
   Center  Symbol  Z      Pop.       Charge
      1       H    1    1.000000   -0.000000
      2       H    1    1.000000   -0.000000

  MBIS Dipoles: [e a0]
   Center  Symbol  Z        X           Y           Z
      1       H    1   -0.000000    0.000000   -0.116046
      2       H    1   -0.000000    0.000000    0.116046

  MBIS Quadrupoles: [e a0^2]
   Center  Symbol  Z      XX        XY        XZ        YY        YZ        ZZ
      1       H    1   -0.8678   -0.0000    0.0000   -0.8678   -0.0000   -0.7735
      2       H    1   -0.8678   -0.0000   -0.0000   -0.8678    0.0000   -0.7735

  MBIS Octupoles: [e a0^3]
   Center  Symbol  Z      XXX       XXY       XXZ       XYY       XYZ       XZZ       YYY       YYZ       YZZ       ZZZ
      1       H    1   -0.0000    0.0000   -0.0835   -0.0000    0.0000   -0.0000    0.0000   -0.0835    0.0000   -0.1336
      2       H    1   -0.0000    0.0000    0.0835   -0.0000   -0.0000   -0.0000    0.0000    0.0835    0.0000    0.1336

  MBIS Radial Moments:
   Center  Symbol  Z      [a0^2]      [a0^3]      [a0^4]
      1       H    1    2.509040    5.784951   16.102742
      2       H    1    2.509040    5.784951   16.102742

  MBIS Valence Widths: [a0]
   Center  Symbol  Z     Width
      1       H    1    0.456705
      2       H    1    0.456705

*** tstop() called on Mac.lan at Sun Aug 10 16:59:48 2025
Module time:
	user time   =       0.54 seconds =       0.01 minutes
	system time =       1.21 seconds =       0.02 minutes
	total time  =          0 seconds =       0.00 minutes
Total time:
	user time   =       1.45 seconds =       0.02 minutes
	system time =       3.40 seconds =       0.06 minutes
	total time  =          1 seconds =       0.02 minutes

    Psi4 stopped on: Sunday, 10 August 2025 04:59PM
    Psi4 wall time for execution: 0:00:00.76

*** Psi4 exiting successfully. Buy a developer a beer!
