                               Psi4 1.9.1 release

  ==> Input File <==

--------------------------------------------------------------------------
molecule {
0 2
N           0.000000           0.000000           0.000000
C           0.000000           0.000000           1.188886
}

set {
basis              cc-pvtz
reference          uks
maxiter            500
DAMPING_PERCENTAGE 1
E_CONVERGENCE      1.0E-8
D_CONVERGENCE      1.0E-8
DIIS_MAX_VECS      400
MBIS_MAXITER       8000
guess              read
}

E, wfn = energy('b3lyp', restart_file='last_wfn', return_wfn=True)
properties('b3lyp','MBIS_CHARGES', wfn=wfn)
wfn.to_file('last_wfn')
--------------------------------------------------------------------------

    Molecular point group: c2v
  Charge       = 0
  Multiplicity = 2
  Basis Set: CC-PVTZ
    Blend: CC-PVTZ
  Basis Set: (CC-PVTZ AUX)
    Blend: CC-PVTZ-JKFIT
  @DF-UKS Final Energy:   -92.74447829240270
    Total Energy =                        -92.7444782924027038
 Dipole X            :          0.0000000            0.0000000            0.0000000
 Dipole Y            :          0.0000000            0.0000000            0.0000000
 Dipole Z            :          0.5014952            0.0015936            0.5030888
 Magnitude           :                                                    0.5030888
    Molecular point group: c2v

    Geometry (in Angstrom), charge = 0, multiplicity = 2:

       Center              X                  Y                   Z               Mass
    ------------   -----------------  -----------------  -----------------  -----------------
         N            0.000000000000     0.000000000000    -0.548651747773    14.003074004430
         C            0.000000000000     0.000000000000     0.640234252227    12.000000000000

  Charge       = 0
  Multiplicity = 2
  Basis Set: CC-PVTZ
    Blend: CC-PVTZ
  Basis Set: (CC-PVTZ AUX)
    Blend: CC-PVTZ-JKFIT

    Orbital Energies [Eh]
    ---------------------

    Alpha Occupied:

       1A1   -14.395783     2A1   -10.302894     3A1    -0.957643
       4A1    -0.509690     5A1    -0.412846     1B1    -0.390225
       1B2    -0.390225

    Alpha Virtual:

       2B2    -0.026550     2B1    -0.026550     6A1     0.165234
       7A1     0.269157     3B2     0.282213     3B1     0.282213
       8A1     0.436104     4B2     0.512783     4B1     0.512783
       9A1     0.569431    10A1     0.619558     1A2     0.619558
       5B1     0.811940     5B2     0.811940    11A1     0.877224
       2A2     1.151507    12A1     1.151507    13A1     1.243886
       6B2     1.496069     6B1     1.496069    14A1     1.732604
       7B2     1.963069     7B1     1.963069    15A1     2.176010
       8B2     2.617422     8B1     2.617422    16A1     2.694725
       3A2     2.694725    17A1     2.742090     9B1     2.767914
       9B2     2.767914    10B2     2.899450    10B1     2.899450
      18A1     2.909123     4A2     2.909123    19A1     3.078327
      11B2     3.382337    11B1     3.382337    20A1     3.815697
      12B2     3.916209    12B1     3.916209     5A2     4.359609
      21A1     4.359610     6A2     4.524941    22A1     4.524945
      13B2     4.773526    13B1     4.773526    23A1     4.914124
      24A1     5.305665    14B2     5.460442    14B1     5.460442
      25A1     5.800722    26A1    12.081231

    Beta Occupied:

       1A1   -14.390870     2A1   -10.287411     3A1    -0.934491
       4A1    -0.442933     1B1    -0.381842     1B2    -0.381842

    Beta Virtual:

       5A1    -0.254073     2B2    -0.005077     2B1    -0.005077
       6A1     0.172482     3B2     0.291516     3B1     0.291516
       7A1     0.308253     8A1     0.447075     4B2     0.514261
       4B1     0.514261     9A1     0.616709     1A2     0.629585
      10A1     0.629585     5B1     0.841853     5B2     0.841853
      11A1     0.889287     2A2     1.153527    12A1     1.153527
      13A1     1.280521     6B2     1.513520     6B1     1.513520
      14A1     1.759499     7B2     1.977528     7B1     1.977528
      15A1     2.226266     8B2     2.633506     8B1     2.633506
       3A2     2.711764    16A1     2.711764    17A1     2.784104
       9B1     2.798652     9B2     2.798652    10B2     2.939333
      10B1     2.939333    18A1     2.948025     4A2     2.948026
      19A1     3.155232    11B2     3.419189    11B1     3.419189
      20A1     3.851551    12B2     3.911278    12B1     3.911278
       5A2     4.361265    21A1     4.361266     6A2     4.530346
      22A1     4.530350    13B2     4.798217    13B1     4.798217
      23A1     4.953383    24A1     5.336247    14B2     5.486361
      14B1     5.486361    25A1     5.815190    26A1    12.101020

    Final Occupation by Irrep:
             A1    A2    B1    B2
    DOCC [     4,    0,    1,    1 ]
    SOCC [     1,    0,    0,    0 ]
    NA   [     5,    0,    1,    1 ]
    NB   [     4,    0,    1,    1 ]

  @DF-UKS Final Energy:   -92.74447829247271

   => Energetics <=

    Nuclear Repulsion Energy =             18.6943431482412947
    One-Electron Energy =                -161.6308994651874684
    Two-Electron Energy =                  60.0062759096244989
    DFT Exchange-Correlation Energy =      -9.8141978851510263
    Empirical Dispersion Energy =           0.0000000000000000
    VV10 Nonlocal Energy =                  0.0000000000000000
    Total Energy =                        -92.7444782924727065

  UHF NO Occupations:
  HONO-2 :    1 B1 1.9986034
  HONO-1 :    1 B2 1.9986034
  HONO-0 :    5 A1 1.0000000
  LUNO+0 :    2 B2 0.0013966
  LUNO+1 :    2 B1 0.0013966
  LUNO+2 :    6 A1 0.0012374
  LUNO+3 :    7 A1 0.0001048

Computation Completed

Properties will be evaluated at   0.000000,   0.000000,   0.000000 [a0]

Properties computed using the B3LYP density matrix

 Multipole Moments:

 ------------------------------------------------------------------------------------
     Multipole            Electronic (a.u.)      Nuclear  (a.u.)        Total (a.u.)
 ------------------------------------------------------------------------------------

 L = 1.  Multiply by 2.5417464519 to convert [e a0] to [Debye]
 Dipole X            :          0.0000000            0.0000000            0.0000000
 Dipole Y            :          0.0000000            0.0000000            0.0000000
 Dipole Z            :          0.5014952            0.0015936            0.5030888
 Magnitude           :                                                    0.5030888

 L = 2.  Multiply by 1.3450342976 to convert [e a0^2] to [Debye ang]
 Quadrupole XX       :         -8.2024699            0.0000000           -8.2024699
 Quadrupole XY       :          0.0000000            0.0000000            0.0000000
 Quadrupole XZ       :          0.0000000            0.0000000            0.0000000
 Quadrupole YY       :         -8.2024699            0.0000000           -8.2024699
 Quadrupole YZ       :          0.0000000            0.0000000            0.0000000
 Quadrupole ZZ       :        -24.0502483           16.3073767           -7.7428716
 Traceless XX        :          5.2825928           -5.4357922           -0.1531994
 Traceless YY        :          5.2825928           -5.4357922           -0.1531994
 Traceless ZZ        :        -10.5651856           10.8715845            0.3063989

 ------------------------------------------------------------------------------------
  ==> Computing MBIS Charges <==

  Electron Count from Grid (Expected Number): 13.00000 (13.00000)
  Difference:  0.00000

  MBIS Charges: (a.u.)
   Center  Symbol  Z      Pop.       Charge
      1       N    7    7.241637   -0.241637
      2       C    6    5.758363    0.241637

  MBIS Dipoles: [e a0]
   Center  Symbol  Z        X           Y           Z
      1       N    7    0.000000    0.000000   -0.185355
      2       C    6   -0.000000    0.000000    0.145565

  MBIS Quadrupoles: [e a0^2]
   Center  Symbol  Z      XX        XY        XZ        YY        YZ        ZZ
      1       N    7   -4.2751   -0.0000   -0.0000   -4.2751   -0.0000   -4.5075
      2       C    6   -3.9274    0.0000   -0.0000   -3.9274    0.0000   -4.0659

  MBIS Octupoles: [e a0^3]
   Center  Symbol  Z      XXX       XXY       XXZ       XYY       XYZ       XZZ       YYY       YYZ       YZZ       ZZZ
      1       N    7   -0.0000   -0.0000   -0.2432    0.0000    0.0000    0.0000   -0.0000   -0.2432    0.0000   -0.4673
      2       C    6   -0.0000   -0.0000    0.1564   -0.0000    0.0000   -0.0000    0.0000    0.1564    0.0000    0.2770

  MBIS Radial Moments:
   Center  Symbol  Z      [a0^2]      [a0^3]      [a0^4]
      1       N    7   13.057635   27.789940   70.618862
      2       C    6   11.920711   28.073013   78.853572

  MBIS Valence Widths: [a0]
   Center  Symbol  Z     Width
      1       N    7    0.444175
      2       C    6    0.496437

*** tstop() called on Mac.lan at Sun Aug 10 17:12:36 2025
Module time:
	user time   =       3.73 seconds =       0.06 minutes
	system time =       1.81 seconds =       0.03 minutes
	total time  =          0 seconds =       0.00 minutes
Total time:
	user time   =      20.91 seconds =       0.35 minutes
	system time =       4.40 seconds =       0.07 minutes
	total time  =          2 seconds =       0.03 minutes

    Psi4 stopped on: Sunday, 10 August 2025 05:12PM
    Psi4 wall time for execution: 0:00:02.44

*** Psi4 exiting successfully. Buy a developer a beer!
