                               Psi4 1.9.1 release

  ==> Input File <==

--------------------------------------------------------------------------
molecule {
0 3
O           0.000000           0.000000           0.000000
O           0.000000           0.000000           1.100010
}

set {
basis              cc-pvtz
reference          uks
maxiter            500
DAMPING_PERCENTAGE 1
E_CONVERGENCE      1.0E-8
D_CONVERGENCE      1.0E-8
DIIS_MAX_VECS      400
MBIS_MAXITER       8000
guess              read
}

E, wfn = energy('b3lyp', restart_file='last_wfn', return_wfn=True)
properties('b3lyp','MBIS_CHARGES', wfn=wfn)
wfn.to_file('last_wfn')
--------------------------------------------------------------------------

    Molecular point group: d2h
  Charge       = 0
  Multiplicity = 3
  Basis Set: CC-PVTZ
    Blend: CC-PVTZ
  Basis Set: (CC-PVTZ AUX)
    Blend: CC-PVTZ-JKFIT
  @DF-UKS Final Energy:  -150.36014066059715
    Total Energy =                       -150.3601406605971533
 Dipole X            :          0.0000000            0.0000000            0.0000000
 Dipole Y            :          0.0000000            0.0000000            0.0000000
 Dipole Z            :          0.0000000            0.0000000            0.0000000
 Magnitude           :                                                    0.0000000
    Molecular point group: d2h

    Geometry (in Angstrom), charge = 0, multiplicity = 3:

       Center              X                  Y                   Z               Mass
    ------------   -----------------  -----------------  -----------------  -----------------
         O            0.000000000000     0.000000000000    -0.550005000000    15.994914619570
         O            0.000000000000     0.000000000000     0.550005000000    15.994914619570

  Charge       = 0
  Multiplicity = 3
  Basis Set: CC-PVTZ
    Blend: CC-PVTZ
  Basis Set: (CC-PVTZ AUX)
    Blend: CC-PVTZ-JKFIT

    Orbital Energies [Eh]
    ---------------------

    Alpha Occupied:

       1Ag   -19.275922     1B1u  -19.275445     2Ag    -1.402538
       2B1u   -0.807751     1B2u   -0.608848     1B3u   -0.608848
       3Ag    -0.570149     1B3g   -0.272638     1B2g   -0.272638

    Alpha Virtual:

       3B1u    0.282227     2B3u    0.485144     2B2u    0.485144
       4Ag     0.533202     4B1u    0.575628     2B2g    0.617430
       2B3g    0.617430     5Ag     0.651050     1B1g    1.173658
       6Ag     1.173658     5B1u    1.178187     3B2u    1.353230
       3B3u    1.353230     1Au     1.643512     6B1u    1.643512
       7Ag     2.170536     7B1u    2.181329     3B2g    2.215309
       3B3g    2.215309     4B3u    3.403512     4B2u    3.403512
       8Ag     3.633749     4B2g    3.743294     4B3g    3.743294
       2B1g    4.509060     9Ag     4.509060     8B1u    4.627934
       5B2u    4.675066     5B3u    4.675066     6B3u    4.807107
       6B2u    4.807107    10Ag     5.051646     5B2g    5.187507
       5B3g    5.187507     9B1u    5.647101    10B1u    5.903388
       2Au     5.903389    11Ag     5.988553     3B1g    5.988557
      11B1u    6.244510     3Au     6.244512     6B2g    6.304270
       6B3g    6.304270     7B3u    6.525545     7B2u    6.525545
      12B1u    7.003995    12Ag     7.073563     7B2g    7.573493
       7B3g    7.573493    13Ag     7.623151    13B1u   15.077143

    Beta Occupied:

       1Ag   -19.245649     1B1u  -19.245000     2Ag    -1.351424
       2B1u   -0.719855     3Ag    -0.527462     1B2u   -0.509729
       1B3u   -0.509729

    Beta Virtual:

       1B3g   -0.076680     1B2g   -0.076680     3B1u    0.308946
       2B3u    0.517055     2B2u    0.517055     4Ag     0.541230
       4B1u    0.608622     2B2g    0.661319     2B3g    0.661319
       5Ag     0.674496     5B1u    1.210436     1B1g    1.214466
       6Ag     1.214466     3B2u    1.386641     3B3u    1.386641
       1Au     1.706600     6B1u    1.706600     7Ag     2.199571
       7B1u    2.203691     3B2g    2.252895     3B3g    2.252895
       4B3u    3.479822     4B2u    3.479822     8Ag     3.656605
       4B2g    3.819097     4B3g    3.819097     2B1g    4.546770
       9Ag     4.546771     8B1u    4.666901     5B2u    4.707351
       5B3u    4.707351     6B3u    4.875762     6B2u    4.875762
      10Ag     5.082287     5B2g    5.262832     5B3g    5.262832
       9B1u    5.686695     2Au     5.970144    10B1u    5.970145
      11Ag     6.097355     3B1g    6.097357    11B1u    6.337521
       3Au     6.337523     6B2g    6.361757     6B3g    6.361757
       7B3u    6.579426     7B2u    6.579426    12B1u    7.036439
      12Ag     7.134524     7B2g    7.611718     7B3g    7.611718
      13Ag     7.646324    13B1u   15.121002

    Final Occupation by Irrep:
             Ag   B1g   B2g   B3g    Au   B1u   B2u   B3u
    DOCC [     3,    0,    0,    0,    0,    2,    1,    1 ]
    SOCC [     0,    0,    1,    1,    0,    0,    0,    0 ]
    NA   [     3,    0,    1,    1,    0,    2,    1,    1 ]
    NB   [     3,    0,    0,    0,    0,    2,    1,    1 ]

  @DF-UKS Final Energy:  -150.36014066057285

   => Energetics <=

    Nuclear Repulsion Energy =             30.7882123643239645
    One-Electron Energy =                -267.1403277232363962
    Two-Electron Energy =                  99.8565070010912450
    DFT Exchange-Correlation Energy =     -13.8645323027516145
    Empirical Dispersion Energy =           0.0000000000000000
    VV10 Nonlocal Energy =                  0.0000000000000000
    Total Energy =                       -150.3601406605728243

  UHF NO Occupations:
  HONO-2 :    1B3u 1.9987990
  HONO-1 :    1B2g 1.0000000
  HONO-0 :    1B3g 1.0000000
  LUNO+0 :    2B3u 0.0012010
  LUNO+1 :    2B2u 0.0012010
  LUNO+2 :    3B1u 0.0007266
  LUNO+3 :    4 Ag 0.0002715

Computation Completed

Properties will be evaluated at   0.000000,   0.000000,   0.000000 [a0]

Properties computed using the B3LYP density matrix

 Multipole Moments:

 ------------------------------------------------------------------------------------
     Multipole            Electronic (a.u.)      Nuclear  (a.u.)        Total (a.u.)
 ------------------------------------------------------------------------------------

 L = 1.  Multiply by 2.5417464519 to convert [e a0] to [Debye]
 Dipole X            :          0.0000000            0.0000000            0.0000000
 Dipole Y            :          0.0000000            0.0000000            0.0000000
 Dipole Z            :          0.0000000            0.0000000            0.0000000
 Magnitude           :                                                    0.0000000

 L = 2.  Multiply by 1.3450342976 to convert [e a0^2] to [Debye ang]
 Quadrupole XX       :         -7.2170697            0.0000000           -7.2170697
 Quadrupole XY       :          0.0000000            0.0000000            0.0000000
 Quadrupole XZ       :          0.0000000            0.0000000            0.0000000
 Quadrupole YY       :         -7.2170697            0.0000000           -7.2170697
 Quadrupole YZ       :          0.0000000            0.0000000            0.0000000
 Quadrupole ZZ       :        -25.1945556           17.2842680           -7.9102876
 Traceless XX        :          5.9924953           -5.7614227            0.2310726
 Traceless YY        :          5.9924953           -5.7614227            0.2310726
 Traceless ZZ        :        -11.9849906           11.5228454           -0.4621453

 ------------------------------------------------------------------------------------
  ==> Computing MBIS Charges <==

  Electron Count from Grid (Expected Number): 16.00000 (16.00000)
  Difference:  0.00000

  MBIS Charges: (a.u.)
   Center  Symbol  Z      Pop.       Charge
      1       O    8    8.000001   -0.000001
      2       O    8    8.000001   -0.000001

  MBIS Dipoles: [e a0]
   Center  Symbol  Z        X           Y           Z
      1       O    8   -0.000000   -0.000000    0.140293
      2       O    8    0.000000   -0.000000   -0.140293

  MBIS Quadrupoles: [e a0^2]
   Center  Symbol  Z      XX        XY        XZ        YY        YZ        ZZ
      1       O    8   -3.6085   -0.0000    0.0000   -3.6085   -0.0000   -3.6635
      2       O    8   -3.6085   -0.0000   -0.0000   -3.6085    0.0000   -3.6635

  MBIS Octupoles: [e a0^3]
   Center  Symbol  Z      XXX       XXY       XXZ       XYY       XYZ       XZZ       YYY       YYZ       YZZ       ZZZ
      1       O    8    0.0000   -0.0000    0.1749    0.0000   -0.0000   -0.0000   -0.0000    0.1749   -0.0000   -0.0256
      2       O    8    0.0000   -0.0000   -0.1749    0.0000    0.0000   -0.0000   -0.0000   -0.1749   -0.0000    0.0256

  MBIS Radial Moments:
   Center  Symbol  Z      [a0^2]      [a0^3]      [a0^4]
      1       O    8   10.880583   20.082368   44.532601
      2       O    8   10.880583   20.082368   44.532601

  MBIS Valence Widths: [a0]
   Center  Symbol  Z     Width
      1       O    8    0.378288
      2       O    8    0.378288

*** tstop() called on Mac.lan at Sun Aug 10 17:00:48 2025
Module time:
	user time   =       3.78 seconds =       0.06 minutes
	system time =       2.28 seconds =       0.04 minutes
	total time  =          0 seconds =       0.00 minutes
Total time:
	user time   =      16.11 seconds =       0.27 minutes
	system time =       4.49 seconds =       0.07 minutes
	total time  =          2 seconds =       0.03 minutes

    Psi4 stopped on: Sunday, 10 August 2025 05:00PM
    Psi4 wall time for execution: 0:00:02.01

*** Psi4 exiting successfully. Buy a developer a beer!
