                               Psi4 1.9.1 release

  ==> Input File <==

--------------------------------------------------------------------------
molecule {
0 3
O           0.000000           0.000000           0.000000
O           0.000000           0.000000           1.077862
}

set {
basis              cc-pvtz
reference          uks
maxiter            500
DAMPING_PERCENTAGE 1
E_CONVERGENCE      1.0E-8
D_CONVERGENCE      1.0E-8
DIIS_MAX_VECS      400
MBIS_MAXITER       8000
guess              read
}

E, wfn = energy('b3lyp', restart_file='last_wfn', return_wfn=True)
properties('b3lyp','MBIS_CHARGES', wfn=wfn)
wfn.to_file('last_wfn')
--------------------------------------------------------------------------

    Molecular point group: d2h
  Charge       = 0
  Multiplicity = 3
  Basis Set: CC-PVTZ
    Blend: CC-PVTZ
  Basis Set: (CC-PVTZ AUX)
    Blend: CC-PVTZ-JKFIT
  @DF-UKS Final Energy:  -150.34872448021324
    Total Energy =                       -150.3487244802132352
 Dipole X            :          0.0000000            0.0000000            0.0000000
 Dipole Y            :          0.0000000            0.0000000            0.0000000
 Dipole Z            :          0.0000000            0.0000000            0.0000000
 Magnitude           :                                                    0.0000000
    Molecular point group: d2h

    Geometry (in Angstrom), charge = 0, multiplicity = 3:

       Center              X                  Y                   Z               Mass
    ------------   -----------------  -----------------  -----------------  -----------------
         O            0.000000000000     0.000000000000    -0.538931000000    15.994914619570
         O            0.000000000000     0.000000000000     0.538931000000    15.994914619570

  Charge       = 0
  Multiplicity = 3
  Basis Set: CC-PVTZ
    Blend: CC-PVTZ
  Basis Set: (CC-PVTZ AUX)
    Blend: CC-PVTZ-JKFIT

    Orbital Energies [Eh]
    ---------------------

    Alpha Occupied:

       1Ag   -19.272625     1B1u  -19.272043     2Ag    -1.424066
       2B1u   -0.800468     1B2u   -0.618703     1B3u   -0.618703
       3Ag    -0.573676     1B2g   -0.262778     1B3g   -0.262778

    Alpha Virtual:

       3B1u    0.296791     2B2u    0.482033     2B3u    0.482033
       4Ag     0.529660     4B1u    0.606896     2B2g    0.618848
       2B3g    0.618848     5Ag     0.650262     1B1g    1.168106
       6Ag     1.168106     5B1u    1.171592     3B3u    1.369653
       3B2u    1.369653     1Au     1.653539     6B1u    1.653539
       7Ag     2.180694     7B1u    2.207706     3B2g    2.225395
       3B3g    2.225395     4B3u    3.407214     4B2u    3.407214
       8Ag     3.649009     4B2g    3.762762     4B3g    3.762762
       2B1g    4.506111     9Ag     4.506111     8B1u    4.586323
       5B3u    4.689120     5B2u    4.689120     6B2u    4.789565
       6B3u    4.789565    10Ag     5.098058     5B3g    5.204088
       5B2g    5.204088     9B1u    5.685142    10B1u    5.957462
       2Au     5.957462    11Ag     5.988340     3B1g    5.988342
       3Au     6.253475    11B1u    6.253476     6B2g    6.289250
       6B3g    6.289250     7B3u    6.561797     7B2u    6.561797
      12Ag     7.060179    12B1u    7.094116     7B2g    7.683460
       7B3g    7.683460    13Ag     7.700145    13B1u   15.864490

    Beta Occupied:

       1Ag   -19.242437     1B1u  -19.241674     2Ag    -1.374139
       2B1u   -0.712818     3Ag    -0.530119     1B2u   -0.520302
       1B3u   -0.520302

    Beta Virtual:

       1B2g   -0.066871     1B3g   -0.066871     3B1u    0.320717
       2B2u    0.513238     2B3u    0.513238     4Ag     0.537488
       4B1u    0.642978     2B2g    0.663293     2B3g    0.663293
       5Ag     0.674003     5B1u    1.203772     1B1g    1.208631
       6Ag     1.208631     3B3u    1.403814     3B2u    1.403814
       1Au     1.717003     6B1u    1.717003     7Ag     2.209059
       7B1u    2.230919     3B2g    2.263348     3B3g    2.263348
       4B3u    3.483434     4B2u    3.483434     8Ag     3.672054
       4B2g    3.838217     4B3g    3.838217     2B1g    4.543189
       9Ag     4.543190     8B1u    4.626157     5B3u    4.721534
       5B2u    4.721534     6B2u    4.857547     6B3u    4.857547
      10Ag     5.128274     5B3g    5.279457     5B2g    5.279457
       9B1u    5.724285     2Au     6.027675    10B1u    6.027676
      11Ag     6.096723     3B1g    6.096723     3Au     6.342916
      11B1u    6.342916     6B2g    6.345463     6B3g    6.345463
       7B3u    6.614879     7B2u    6.614879    12Ag     7.121672
      12B1u    7.126875     7B2g    7.722863     7B3g    7.722863
      13Ag     7.722929    13B1u   15.908177

    Final Occupation by Irrep:
             Ag   B1g   B2g   B3g    Au   B1u   B2u   B3u
    DOCC [     3,    0,    0,    0,    0,    2,    1,    1 ]
    SOCC [     0,    0,    1,    1,    0,    0,    0,    0 ]
    NA   [     3,    0,    1,    1,    0,    2,    1,    1 ]
    NB   [     3,    0,    0,    0,    0,    2,    1,    1 ]

  @DF-UKS Final Energy:  -150.34872448017953

   => Energetics <=

    Nuclear Repulsion Energy =             31.4208511691478130
    One-Electron Energy =                -268.3242056600990963
    Two-Electron Energy =                 100.4407972482732703
    DFT Exchange-Correlation Energy =     -13.8861672375015228
    Empirical Dispersion Energy =           0.0000000000000000
    VV10 Nonlocal Energy =                  0.0000000000000000
    Total Energy =                       -150.3487244801795271

  UHF NO Occupations:
  HONO-2 :    1B2u 1.9988657
  HONO-1 :    1B2g 1.0000000
  HONO-0 :    1B3g 1.0000000
  LUNO+0 :    2B2u 0.0011343
  LUNO+1 :    2B3u 0.0011343
  LUNO+2 :    3B1u 0.0007120
  LUNO+3 :    4 Ag 0.0002673

Computation Completed

Properties will be evaluated at   0.000000,   0.000000,   0.000000 [a0]

Properties computed using the B3LYP density matrix

 Multipole Moments:

 ------------------------------------------------------------------------------------
     Multipole            Electronic (a.u.)      Nuclear  (a.u.)        Total (a.u.)
 ------------------------------------------------------------------------------------

 L = 1.  Multiply by 2.5417464519 to convert [e a0] to [Debye]
 Dipole X            :          0.0000000            0.0000000            0.0000000
 Dipole Y            :          0.0000000            0.0000000            0.0000000
 Dipole Z            :          0.0000000            0.0000000            0.0000000
 Magnitude           :                                                    0.0000000

 L = 2.  Multiply by 1.3450342976 to convert [e a0^2] to [Debye ang]
 Quadrupole XX       :         -7.1828923            0.0000000           -7.1828923
 Quadrupole XY       :          0.0000000            0.0000000            0.0000000
 Quadrupole XZ       :          0.0000000            0.0000000            0.0000000
 Quadrupole YY       :         -7.1828923            0.0000000           -7.1828923
 Quadrupole YZ       :          0.0000000            0.0000000            0.0000000
 Quadrupole ZZ       :        -24.5321496           16.5952595           -7.9368901
 Traceless XX        :          5.7830858           -5.5317532            0.2513326
 Traceless YY        :          5.7830858           -5.5317532            0.2513326
 Traceless ZZ        :        -11.5661715           11.0635063           -0.5026652

 ------------------------------------------------------------------------------------
  ==> Computing MBIS Charges <==

  Electron Count from Grid (Expected Number): 16.00000 (16.00000)
  Difference:  0.00000

  MBIS Charges: (a.u.)
   Center  Symbol  Z      Pop.       Charge
      1       O    8    8.000001   -0.000001
      2       O    8    8.000001   -0.000001

  MBIS Dipoles: [e a0]
   Center  Symbol  Z        X           Y           Z
      1       O    8    0.000000   -0.000000    0.148722
      2       O    8   -0.000000   -0.000000   -0.148722

  MBIS Quadrupoles: [e a0^2]
   Center  Symbol  Z      XX        XY        XZ        YY        YZ        ZZ
      1       O    8   -3.5914   -0.0000    0.0000   -3.5914   -0.0000   -3.6655
      2       O    8   -3.5914   -0.0000   -0.0000   -3.5914    0.0000   -3.6655

  MBIS Octupoles: [e a0^3]
   Center  Symbol  Z      XXX       XXY       XXZ       XYY       XYZ       XZZ       YYY       YYZ       YZZ       ZZZ
      1       O    8   -0.0000   -0.0000    0.1904    0.0000   -0.0000   -0.0000   -0.0000    0.1904   -0.0000   -0.0034
      2       O    8   -0.0000   -0.0000   -0.1904    0.0000    0.0000    0.0000   -0.0000   -0.1904   -0.0000    0.0034

  MBIS Radial Moments:
   Center  Symbol  Z      [a0^2]      [a0^3]      [a0^4]
      1       O    8   10.848410   19.998852   44.306160
      2       O    8   10.848410   19.998852   44.306160

  MBIS Valence Widths: [a0]
   Center  Symbol  Z     Width
      1       O    8    0.377650
      2       O    8    0.377650

*** tstop() called on Mac.lan at Sun Aug 10 17:00:51 2025
Module time:
	user time   =       3.77 seconds =       0.06 minutes
	system time =       2.33 seconds =       0.04 minutes
	total time  =          1 seconds =       0.02 minutes
Total time:
	user time   =      16.35 seconds =       0.27 minutes
	system time =       4.21 seconds =       0.07 minutes
	total time  =          2 seconds =       0.03 minutes

    Psi4 stopped on: Sunday, 10 August 2025 05:00PM
    Psi4 wall time for execution: 0:00:02.01

*** Psi4 exiting successfully. Buy a developer a beer!
