                               Psi4 1.9.1 release

  ==> Input File <==

--------------------------------------------------------------------------
molecule {
0 1
N           0.000000           0.000000           0.000000
N           0.000000           0.000000           1.436542
}

set {
basis              cc-pvtz
reference          uks
maxiter            500
DAMPING_PERCENTAGE 1
E_CONVERGENCE      1.0E-8
D_CONVERGENCE      1.0E-8
DIIS_MAX_VECS      400
MBIS_MAXITER       8000
guess              read
}

E, wfn = energy('b3lyp', restart_file='last_wfn', return_wfn=True)
properties('b3lyp','MBIS_CHARGES', wfn=wfn)
wfn.to_file('last_wfn')
--------------------------------------------------------------------------

    Molecular point group: d2h
  Charge       = 0
  Multiplicity = 1
  Basis Set: CC-PVTZ
    Blend: CC-PVTZ
  Basis Set: (CC-PVTZ AUX)
    Blend: CC-PVTZ-JKFIT
  @DF-UKS Final Energy:  -109.40754923859345
    Total Energy =                       -109.4075492385934467
 Dipole X            :          0.0000000            0.0000000            0.0000000
 Dipole Y            :          0.0000000            0.0000000            0.0000000
 Dipole Z            :          0.0000000            0.0000000            0.0000000
 Magnitude           :                                                    0.0000000
    Molecular point group: d2h

    Geometry (in Angstrom), charge = 0, multiplicity = 1:

       Center              X                  Y                   Z               Mass
    ------------   -----------------  -----------------  -----------------  -----------------
         N            0.000000000000     0.000000000000    -0.718271000000    14.003074004430
         N            0.000000000000     0.000000000000     0.718271000000    14.003074004430

  Charge       = 0
  Multiplicity = 1
  Basis Set: CC-PVTZ
    Blend: CC-PVTZ
  Basis Set: (CC-PVTZ AUX)
    Blend: CC-PVTZ-JKFIT

    Orbital Energies [Eh]
    ---------------------

    Alpha Occupied:

       1Ag   -14.487398     1B1u  -14.487160     2Ag    -0.954324
       2B1u   -0.638134     3Ag    -0.414787     1B2u   -0.387999
       1B3u   -0.387999

    Alpha Virtual:

       1B3g   -0.144180     1B2g   -0.144180     3B1u    0.127724
       4B1u    0.406017     2B3u    0.416921     2B2u    0.416921
       4Ag     0.441608     5Ag     0.489309     2B2g    0.505520
       2B3g    0.505520     5B1u    0.867700     1B1g    0.874308
       6Ag     0.874308     3B2u    0.926439     3B3u    0.926439
       1Au     1.157921     6B1u    1.157921     7Ag     1.528883
       3B2g    1.568200     3B3g    1.568200     7B1u    1.633957
       4B3u    2.684324     4B2u    2.684324     8Ag     2.789139
       4B2g    2.879952     4B3g    2.879952     5B3u    3.500169
       5B2u    3.500169     9Ag     3.507933     2B1g    3.507933
       8B1u    3.552297    10Ag     3.593474     6B3u    3.750286
       6B2u    3.750286     5B3g    3.896543     5B2g    3.896543
       9B1u    4.217652     2Au     4.217654    11Ag     4.323128
       3B1g    4.323140    10B1u    4.424013    11B1u    4.510210
       3Au     4.510221     6B2g    4.515530     6B3g    4.515530
       7B2u    4.576368     7B3u    4.576368    12B1u    4.846354
      12Ag     5.070588     7B3g    5.315982     7B2g    5.315982
      13Ag     5.586536    13B1u    8.375634

    Beta Occupied:

       1Ag   -14.487398     1B1u  -14.487160     2Ag    -0.954324
       2B1u   -0.638134     3Ag    -0.414787     1B2u   -0.387999
       1B3u   -0.387999

    Beta Virtual:

       1B3g   -0.144180     1B2g   -0.144180     3B1u    0.127724
       4B1u    0.406017     2B3u    0.416921     2B2u    0.416921
       4Ag     0.441608     5Ag     0.489309     2B2g    0.505520
       2B3g    0.505520     5B1u    0.867700     1B1g    0.874308
       6Ag     0.874308     3B2u    0.926439     3B3u    0.926439
       1Au     1.157921     6B1u    1.157921     7Ag     1.528883
       3B2g    1.568200     3B3g    1.568200     7B1u    1.633957
       4B3u    2.684324     4B2u    2.684324     8Ag     2.789139
       4B2g    2.879952     4B3g    2.879952     5B3u    3.500169
       5B2u    3.500169     9Ag     3.507933     2B1g    3.507933
       8B1u    3.552297    10Ag     3.593474     6B3u    3.750286
       6B2u    3.750286     5B3g    3.896543     5B2g    3.896543
       9B1u    4.217652     2Au     4.217654    11Ag     4.323128
       3B1g    4.323140    10B1u    4.424013    11B1u    4.510210
       3Au     4.510221     6B2g    4.515530     6B3g    4.515530
       7B2u    4.576368     7B3u    4.576368    12B1u    4.846354
      12Ag     5.070588     7B3g    5.315982     7B2g    5.315982
      13Ag     5.586536    13B1u    8.375634

    Final Occupation by Irrep:
             Ag   B1g   B2g   B3g    Au   B1u   B2u   B3u
    DOCC [     3,    0,    0,    0,    0,    2,    1,    1 ]
    SOCC [     0,    0,    0,    0,    0,    0,    0,    0 ]
    NA   [     3,    0,    0,    0,    0,    2,    1,    1 ]
    NB   [     3,    0,    0,    0,    0,    2,    1,    1 ]

  @DF-UKS Final Energy:  -109.40754923873632

   => Energetics <=

    Nuclear Repulsion Energy =             18.0500697667245333
    One-Electron Energy =                -183.5885663744521707
    Two-Electron Energy =                  66.9753408469103704
    DFT Exchange-Correlation Energy =     -10.8443934779190592
    Empirical Dispersion Energy =           0.0000000000000000
    VV10 Nonlocal Energy =                  0.0000000000000000
    Total Energy =                       -109.4075492387363226

  UHF NO Occupations:
  HONO-2 :    1B1u 2.0000000
  HONO-1 :    1B3u 2.0000000
  HONO-0 :    2B1u 2.0000000
  LUNO+0 :    3B1u 0.0000000
  LUNO+1 :    4B1u 0.0000000
  LUNO+2 :    4 Ag 0.0000000
  LUNO+3 :    5B1u 0.0000000

Computation Completed

Properties will be evaluated at   0.000000,   0.000000,   0.000000 [a0]

Properties computed using the B3LYP density matrix

 Multipole Moments:

 ------------------------------------------------------------------------------------
     Multipole            Electronic (a.u.)      Nuclear  (a.u.)        Total (a.u.)
 ------------------------------------------------------------------------------------

 L = 1.  Multiply by 2.5417464519 to convert [e a0] to [Debye]
 Dipole X            :          0.0000000            0.0000000            0.0000000
 Dipole Y            :          0.0000000            0.0000000            0.0000000
 Dipole Z            :          0.0000000            0.0000000            0.0000000
 Magnitude           :                                                    0.0000000

 L = 2.  Multiply by 1.3450342976 to convert [e a0^2] to [Debye ang]
 Quadrupole XX       :         -8.1573533            0.0000000           -8.1573533
 Quadrupole XY       :          0.0000000            0.0000000            0.0000000
 Quadrupole XZ       :          0.0000000            0.0000000            0.0000000
 Quadrupole YY       :         -8.1573533            0.0000000           -8.1573533
 Quadrupole YZ       :          0.0000000            0.0000000            0.0000000
 Quadrupole ZZ       :        -34.3585817           25.7930342           -8.5655474
 Traceless XX        :          8.7337428           -8.5976781            0.1360647
 Traceless YY        :          8.7337428           -8.5976781            0.1360647
 Traceless ZZ        :        -17.4674856           17.1953562           -0.2721294

 ------------------------------------------------------------------------------------
  ==> Computing MBIS Charges <==

  Electron Count from Grid (Expected Number): 14.00000 (14.00000)
  Difference:  0.00000

  MBIS Charges: (a.u.)
   Center  Symbol  Z      Pop.       Charge
      1       N    7    7.000000   -0.000000
      2       N    7    7.000000   -0.000000

  MBIS Dipoles: [e a0]
   Center  Symbol  Z        X           Y           Z
      1       N    7   -0.000000    0.000000   -0.025538
      2       N    7    0.000000    0.000000    0.025538

  MBIS Quadrupoles: [e a0^2]
   Center  Symbol  Z      XX        XY        XZ        YY        YZ        ZZ
      1       N    7   -4.0787    0.0000   -0.0000   -4.0787   -0.0000   -4.3521
      2       N    7   -4.0787   -0.0000    0.0000   -4.0787    0.0000   -4.3521

  MBIS Octupoles: [e a0^3]
   Center  Symbol  Z      XXX       XXY       XXZ       XYY       XYZ       XZZ       YYY       YYZ       YZZ       ZZZ
      1       N    7   -0.0000    0.0000   -0.1608    0.0000    0.0000    0.0000   -0.0000   -0.1608    0.0000   -0.3361
      2       N    7   -0.0000    0.0000    0.1608    0.0000    0.0000   -0.0000    0.0000    0.1608    0.0000    0.3361

  MBIS Radial Moments:
   Center  Symbol  Z      [a0^2]      [a0^3]      [a0^4]
      1       N    7   12.509455   26.586870   67.257953
      2       N    7   12.509455   26.586870   67.257953

  MBIS Valence Widths: [a0]
   Center  Symbol  Z     Width
      1       N    7    0.445136
      2       N    7    0.445136

*** tstop() called on Mac.lan at Sun Aug 10 17:07:32 2025
Module time:
	user time   =      13.66 seconds =       0.23 minutes
	system time =       2.12 seconds =       0.04 minutes
	total time  =          2 seconds =       0.03 minutes
Total time:
	user time   =      52.22 seconds =       0.87 minutes
	system time =       4.44 seconds =       0.07 minutes
	total time  =          6 seconds =       0.10 minutes

    Psi4 stopped on: Sunday, 10 August 2025 05:07PM
    Psi4 wall time for execution: 0:00:05.71

*** Psi4 exiting successfully. Buy a developer a beer!
