                               Psi4 1.9.1 release

  ==> Input File <==

--------------------------------------------------------------------------
molecule {
0 2
O           0.000000           0.000000           0.000000
N           0.000000           0.000000           1.676832
}

set {
basis              cc-pvtz
reference          uks
maxiter            500
DAMPING_PERCENTAGE 1
E_CONVERGENCE      1.0E-8
D_CONVERGENCE      1.0E-8
DIIS_MAX_VECS      400
MBIS_MAXITER       8000
guess              read
}

E, wfn = energy('b3lyp', restart_file='last_wfn', return_wfn=True)
properties('b3lyp','MBIS_CHARGES', wfn=wfn)
wfn.to_file('last_wfn')
--------------------------------------------------------------------------

    Molecular point group: c2v
  Charge       = 0
  Multiplicity = 2
  Basis Set: CC-PVTZ
    Blend: CC-PVTZ
  Basis Set: (CC-PVTZ AUX)
    Blend: CC-PVTZ-JKFIT
  @DF-UKS Final Energy:  -129.77600691659683
    Total Energy =                       -129.7760069165968275
 Dipole X            :          0.0000000            0.0000000            0.0000000
 Dipole Y            :          0.0000000            0.0000000            0.0000000
 Dipole Z            :          0.2865152           -0.0063580            0.2801573
 Magnitude           :                                                    0.2801573
    Molecular point group: c2v

    Geometry (in Angstrom), charge = 0, multiplicity = 2:

       Center              X                  Y                   Z               Mass
    ------------   -----------------  -----------------  -----------------  -----------------
         O            0.000000000000     0.000000000000    -0.782745899510    15.994914619570
         N            0.000000000000     0.000000000000     0.894086100490    14.003074004430

  Charge       = 0
  Multiplicity = 2
  Basis Set: CC-PVTZ
    Blend: CC-PVTZ
  Basis Set: (CC-PVTZ AUX)
    Blend: CC-PVTZ-JKFIT

    Orbital Energies [Eh]
    ---------------------

    Alpha Occupied:

       1A1   -19.240287     2A1   -14.507243     3A1    -0.970305
       4A1    -0.784327     5A1    -0.422421     1B1    -0.418651
       1B2    -0.398924     2B1    -0.318027

    Alpha Virtual:

       2B2    -0.184587     6A1    -0.075886     7A1     0.404426
       3B1     0.414379     3B2     0.414575     8A1     0.504720
       9A1     0.594074     4B1     0.602600     4B2     0.624988
       1A2     0.947632    10A1     0.947831     5B2     0.958897
       5B1     0.961767    11A1     1.054111    12A1     1.345838
       2A2     1.472803    13A1     1.477709     6B1     1.707032
       6B2     1.713192    14A1     1.992506     7B1     2.709859
       7B2     2.710017    15A1     2.957998    16A1     3.471154
       8B1     3.511938     8B2     3.540377     9B1     3.768718
       9B2     3.768723     3A2     3.771679    17A1     3.771851
      10B1     3.856765    10B2     3.859604    18A1     4.141368
       4A2     4.277031    19A1     4.277297    11B2     4.393039
      11B1     4.393993    20A1     4.825215    12B1     5.102759
      12B2     5.104842     5A2     5.112304    21A1     5.116909
      22A1     5.230358    13B1     5.330299    13B2     5.336919
      23A1     5.746419     6A2     6.165715    24A1     6.178096
      14B1     6.369357    14B2     6.394854    25A1     6.946408
      26A1     7.848773

    Beta Occupied:

       1A1   -19.264087     2A1   -14.466404     3A1    -1.010931
       4A1    -0.691609     1B2    -0.440039     5A1    -0.420220
       1B1    -0.371498

    Beta Virtual:

       2B2    -0.151268     2B1    -0.139142     6A1    -0.055825
       7A1     0.422966     3B2     0.464655     3B1     0.475229
       8A1     0.529437     4B2     0.578076     9A1     0.597196
       4B1     0.606292     5B2     0.984949     5B1     0.999013
      10A1     1.026974     1A2     1.026984    11A1     1.040618
      12A1     1.365107     2A2     1.437253    13A1     1.440322
       6B2     1.685669     6B1     1.716511    14A1     1.990907
       7B2     2.810433     7B1     2.818976    15A1     2.978112
       8B2     3.460610    16A1     3.494400     8B1     3.514907
       3A2     3.855771    17A1     3.855777     9B2     3.882629
       9B1     3.882895    10B2     3.891801    10B1     3.910014
      18A1     4.167923     4A2     4.430366    19A1     4.430388
      11B2     4.478769    11B1     4.489468    20A1     4.843944
      12B2     5.049316    12B1     5.049557     5A2     5.071379
      21A1     5.073269    13B2     5.282481    22A1     5.309280
      13B1     5.325435    23A1     5.723528     6A2     6.095633
      24A1     6.095911    14B2     6.300138    14B1     6.355657
      25A1     6.921702    26A1     7.804106

    Final Occupation by Irrep:
             A1    A2    B1    B2
    DOCC [     5,    0,    1,    1 ]
    SOCC [     0,    0,    1,    0 ]
    NA   [     5,    0,    2,    1 ]
    NB   [     5,    0,    1,    1 ]

  @DF-UKS Final Energy:  -129.77600691719698

   => Energetics <=

    Nuclear Repulsion Energy =             17.6725657653956993
    One-Electron Energy =                -212.3499340651360683
    Two-Electron Energy =                  77.1634491421833957
    DFT Exchange-Correlation Energy =     -12.2620877596400089
    Empirical Dispersion Energy =           0.0000000000000000
    VV10 Nonlocal Energy =                  0.0000000000000000
    Total Energy =                       -129.7760069171969803

  UHF NO Occupations:
  HONO-2 :    5 A1 1.9797245
  HONO-1 :    1 B2 1.5265582
  HONO-0 :    2 B1 1.0000000
  LUNO+0 :    2 B2 0.4734418
  LUNO+1 :    6 A1 0.0202755
  LUNO+2 :    7 A1 0.0008791
  LUNO+3 :    8 A1 0.0003387

Computation Completed

Properties will be evaluated at   0.000000,   0.000000,   0.000000 [a0]

Properties computed using the B3LYP density matrix

 Multipole Moments:

 ------------------------------------------------------------------------------------
     Multipole            Electronic (a.u.)      Nuclear  (a.u.)        Total (a.u.)
 ------------------------------------------------------------------------------------

 L = 1.  Multiply by 2.5417464519 to convert [e a0] to [Debye]
 Dipole X            :          0.0000000            0.0000000            0.0000000
 Dipole Y            :          0.0000000            0.0000000            0.0000000
 Dipole Z            :          0.2865143           -0.0063580            0.2801564
 Magnitude           :                                                    0.2801564

 L = 2.  Multiply by 1.3450342976 to convert [e a0^2] to [Debye ang]
 Quadrupole XX       :         -8.3024885            0.0000000           -8.3024885
 Quadrupole XY       :          0.0000000            0.0000000            0.0000000
 Quadrupole XZ       :          0.0000000            0.0000000            0.0000000
 Quadrupole YY       :         -7.4956240            0.0000000           -7.4956240
 Quadrupole YZ       :          0.0000000            0.0000000            0.0000000
 Quadrupole ZZ       :        -45.4354701           37.4863918           -7.9490783
 Traceless XX        :         12.1087057          -12.4954639           -0.3867582
 Traceless YY        :         12.9155702          -12.4954639            0.4201063
 Traceless ZZ        :        -25.0242759           24.9909279           -0.0333481

 ------------------------------------------------------------------------------------
  ==> Computing MBIS Charges <==

  Electron Count from Grid (Expected Number): 15.00000 (15.00000)
  Difference: -0.00000

  MBIS Charges: (a.u.)
   Center  Symbol  Z      Pop.       Charge
      1       O    8    8.117103   -0.117103
      2       N    7    6.882896    0.117104

  MBIS Dipoles: [e a0]
   Center  Symbol  Z        X           Y           Z
      1       O    8   -0.000000   -0.000000   -0.020821
      2       N    7   -0.000000    0.000000   -0.070096

  MBIS Quadrupoles: [e a0^2]
   Center  Symbol  Z      XX        XY        XZ        YY        YZ        ZZ
      1       O    8   -4.2699   -0.0000    0.0000   -3.6316   -0.0000   -3.8665
      2       N    7   -4.0326   -0.0000    0.0000   -3.8641    0.0000   -3.9854

  MBIS Octupoles: [e a0^3]
   Center  Symbol  Z      XXX       XXY       XXZ       XYY       XYZ       XZZ       YYY       YYZ       YZZ       ZZZ
      1       O    8    0.0000   -0.0000    0.0278   -0.0000   -0.0000   -0.0000   -0.0000   -0.0686   -0.0000   -0.2898
      2       N    7   -0.0000   -0.0000    0.0273    0.0000    0.0000    0.0000   -0.0000   -0.0105   -0.0000    0.2685

  MBIS Radial Moments:
   Center  Symbol  Z      [a0^2]      [a0^3]      [a0^4]
      1       O    8   11.768008   22.403342   51.051124
      2       N    7   11.881986   24.942617   62.477812

  MBIS Valence Widths: [a0]
   Center  Symbol  Z     Width
      1       O    8    0.390576
      2       N    7    0.438155

*** tstop() called on Mac.lan at Sun Aug 10 17:21:41 2025
Module time:
	user time   =       3.64 seconds =       0.06 minutes
	system time =       2.17 seconds =       0.04 minutes
	total time  =          0 seconds =       0.00 minutes
Total time:
	user time   =      18.20 seconds =       0.30 minutes
	system time =       4.02 seconds =       0.07 minutes
	total time  =          2 seconds =       0.03 minutes

    Psi4 stopped on: Sunday, 10 August 2025 05:21PM
    Psi4 wall time for execution: 0:00:02.15

*** Psi4 exiting successfully. Buy a developer a beer!
