                               Psi4 1.9.1 release

  ==> Input File <==

--------------------------------------------------------------------------
molecule {
0 1
H           0.000000           0.000000           0.000000
H           0.000000           0.000000           0.554875
}

set {
basis              cc-pvtz
reference          uks
maxiter            500
DAMPING_PERCENTAGE 1
E_CONVERGENCE      1.0E-8
D_CONVERGENCE      1.0E-8
DIIS_MAX_VECS      400
MBIS_MAXITER       8000
guess              read
}

E, wfn = energy('b3lyp', restart_file='last_wfn', return_wfn=True)
properties('b3lyp','MBIS_CHARGES', wfn=wfn)
wfn.to_file('last_wfn')
--------------------------------------------------------------------------

    Molecular point group: d2h
  Charge       = 0
  Multiplicity = 1
  Basis Set: CC-PVTZ
    Blend: CC-PVTZ
  Basis Set: (CC-PVTZ AUX)
    Blend: CC-PVTZ-JKFIT
  @DF-UKS Final Energy:    -1.14318707546006
    Total Energy =                         -1.1431870754600575
 Dipole X            :          0.0000000            0.0000000            0.0000000
 Dipole Y            :          0.0000000            0.0000000            0.0000000
 Dipole Z            :          0.0000000            0.0000000            0.0000000
 Magnitude           :                                                    0.0000000
    Molecular point group: d2h

    Geometry (in Angstrom), charge = 0, multiplicity = 1:

       Center              X                  Y                   Z               Mass
    ------------   -----------------  -----------------  -----------------  -----------------
         H            0.000000000000     0.000000000000    -0.277437500000     1.007825032230
         H            0.000000000000     0.000000000000     0.277437500000     1.007825032230

  Charge       = 0
  Multiplicity = 1
  Basis Set: CC-PVTZ
    Blend: CC-PVTZ
  Basis Set: (CC-PVTZ AUX)
    Blend: CC-PVTZ-JKFIT

    Orbital Energies [Eh]
    ---------------------

    Alpha Occupied:

       1Ag    -0.478527

    Alpha Virtual:

       1B1u    0.090184     2Ag     0.182473     1B2u    0.531788
       1B3u    0.531788     2B1u    0.535595     3Ag     0.955707
       1B3g    0.962704     1B2g    0.962704     3B1u    1.402932
       4Ag     1.973067     4B1u    2.341779     5Ag     2.925005
       1B1g    2.925005     2B2u    3.150919     2B3u    3.150919
       2B3g    3.414775     2B2g    3.414775     6Ag     3.416565
       1Au     3.987602     5B1u    3.987602     3B2u    4.004665
       3B3u    4.004665     6B1u    4.839784     7Ag     6.224892
       3B3g    6.234235     3B2g    6.234235     7B1u    8.261657

    Beta Occupied:

       1Ag    -0.478527

    Beta Virtual:

       1B1u    0.090184     2Ag     0.182473     1B2u    0.531788
       1B3u    0.531788     2B1u    0.535595     3Ag     0.955707
       1B3g    0.962704     1B2g    0.962704     3B1u    1.402932
       4Ag     1.973067     4B1u    2.341779     5Ag     2.925005
       1B1g    2.925005     2B2u    3.150919     2B3u    3.150919
       2B3g    3.414775     2B2g    3.414775     6Ag     3.416565
       1Au     3.987602     5B1u    3.987602     3B2u    4.004665
       3B3u    4.004665     6B1u    4.839784     7Ag     6.224892
       3B3g    6.234235     3B2g    6.234235     7B1u    8.261657

    Final Occupation by Irrep:
             Ag   B1g   B2g   B3g    Au   B1u   B2u   B3u
    DOCC [     1,    0,    0,    0,    0,    0,    0,    0 ]
    SOCC [     0,    0,    0,    0,    0,    0,    0,    0 ]
    NA   [     1,    0,    0,    0,    0,    0,    0,    0 ]
    NB   [     1,    0,    0,    0,    0,    0,    0,    0 ]

  @DF-UKS Final Energy:    -1.14318707557692

   => Energetics <=

    Nuclear Repulsion Energy =              0.9536872460824509
    One-Electron Energy =                  -2.7811290457092142
    Two-Electron Energy =                   1.3143909095865591
    DFT Exchange-Correlation Energy =      -0.6301361855367200
    Empirical Dispersion Energy =           0.0000000000000000
    VV10 Nonlocal Energy =                  0.0000000000000000
    Total Energy =                         -1.1431870755769242

  UHF NO Occupations:
  HONO-0 :    1 Ag 2.0000000
  LUNO+0 :    2 Ag 0.0000000
  LUNO+1 :    3 Ag 0.0000000
  LUNO+2 :    4 Ag 0.0000000
  LUNO+3 :    5 Ag 0.0000000

Computation Completed

Properties will be evaluated at   0.000000,   0.000000,   0.000000 [a0]

Properties computed using the B3LYP density matrix

 Multipole Moments:

 ------------------------------------------------------------------------------------
     Multipole            Electronic (a.u.)      Nuclear  (a.u.)        Total (a.u.)
 ------------------------------------------------------------------------------------

 L = 1.  Multiply by 2.5417464519 to convert [e a0] to [Debye]
 Dipole X            :          0.0000000            0.0000000            0.0000000
 Dipole Y            :          0.0000000            0.0000000            0.0000000
 Dipole Z            :          0.0000000            0.0000000            0.0000000
 Magnitude           :                                                    0.0000000

 L = 2.  Multiply by 1.3450342976 to convert [e a0^2] to [Debye ang]
 Quadrupole XX       :         -1.3571655            0.0000000           -1.3571655
 Quadrupole XY       :          0.0000000            0.0000000            0.0000000
 Quadrupole XZ       :          0.0000000            0.0000000            0.0000000
 Quadrupole YY       :         -1.3571655            0.0000000           -1.3571655
 Quadrupole YZ       :          0.0000000            0.0000000            0.0000000
 Quadrupole ZZ       :         -1.6609208            0.5497409           -1.1111799
 Traceless XX        :          0.1012518           -0.1832470           -0.0819952
 Traceless YY        :          0.1012518           -0.1832470           -0.0819952
 Traceless ZZ        :         -0.2025035            0.3664939            0.1639904

 ------------------------------------------------------------------------------------
  ==> Computing MBIS Charges <==

  Electron Count from Grid (Expected Number):  2.00000 ( 2.00000)
  Difference:  0.00000

  MBIS Charges: (a.u.)
   Center  Symbol  Z      Pop.       Charge
      1       H    1    1.000000   -0.000000
      2       H    1    1.000000   -0.000000

  MBIS Dipoles: [e a0]
   Center  Symbol  Z        X           Y           Z
      1       H    1    0.000000    0.000000   -0.051029
      2       H    1   -0.000000   -0.000000    0.051029

  MBIS Quadrupoles: [e a0^2]
   Center  Symbol  Z      XX        XY        XZ        YY        YZ        ZZ
      1       H    1   -0.6786    0.0000   -0.0000   -0.6786   -0.0000   -0.6091
      2       H    1   -0.6786   -0.0000    0.0000   -0.6786    0.0000   -0.6091

  MBIS Octupoles: [e a0^3]
   Center  Symbol  Z      XXX       XXY       XXZ       XYY       XYZ       XZZ       YYY       YYZ       YZZ       ZZZ
      1       H    1    0.0000    0.0000   -0.0142    0.0000    0.0000    0.0000    0.0000   -0.0142   -0.0000   -0.0061
      2       H    1    0.0000    0.0000    0.0142    0.0000   -0.0000    0.0000    0.0000    0.0142    0.0000    0.0061

  MBIS Radial Moments:
   Center  Symbol  Z      [a0^2]      [a0^3]      [a0^4]
      1       H    1    1.966263    4.122281   10.608213
      2       H    1    1.966263    4.122281   10.608213

  MBIS Valence Widths: [a0]
   Center  Symbol  Z     Width
      1       H    1    0.400688
      2       H    1    0.400688

*** tstop() called on Mac.lan at Sun Aug 10 16:59:26 2025
Module time:
	user time   =       0.52 seconds =       0.01 minutes
	system time =       1.26 seconds =       0.02 minutes
	total time  =          0 seconds =       0.00 minutes
Total time:
	user time   =       1.18 seconds =       0.02 minutes
	system time =       3.48 seconds =       0.06 minutes
	total time  =          1 seconds =       0.02 minutes

    Psi4 stopped on: Sunday, 10 August 2025 04:59PM
    Psi4 wall time for execution: 0:00:00.64

*** Psi4 exiting successfully. Buy a developer a beer!
