                               Psi4 1.9.1 release

  ==> Input File <==

--------------------------------------------------------------------------
molecule {
0 2
C           0.000000           0.000000           0.000000
H           0.000000           0.000000           1.499796
}

set {
basis              cc-pvtz
reference          uks
maxiter            500
DAMPING_PERCENTAGE 1
E_CONVERGENCE      1.0E-8
D_CONVERGENCE      1.0E-8
DIIS_MAX_VECS      400
MBIS_MAXITER       8000
guess              read
}

E, wfn = energy('b3lyp', restart_file='last_wfn', return_wfn=True)
properties('b3lyp','MBIS_CHARGES', wfn=wfn)
wfn.to_file('last_wfn')
--------------------------------------------------------------------------

    Molecular point group: c2v
  Charge       = 0
  Multiplicity = 2
  Basis Set: CC-PVTZ
    Blend: CC-PVTZ
  Basis Set: (CC-PVTZ AUX)
    Blend: CC-PVTZ-JKFIT
  @DF-UKS Final Energy:   -38.45929920202553
    Total Energy =                        -38.4592992020255338
 Dipole X            :          0.0000000            0.0000000            0.0000000
 Dipole Y            :          0.0000000            0.0000000            0.0000000
 Dipole Z            :         -1.0322982            1.2970774            0.2647792
 Magnitude           :                                                    0.2647792
    Molecular point group: c2v

    Geometry (in Angstrom), charge = 0, multiplicity = 2:

       Center              X                  Y                   Z               Mass
    ------------   -----------------  -----------------  -----------------  -----------------
         C            0.000000000000     0.000000000000    -0.116201743819    12.000000000000
         H            0.000000000000     0.000000000000     1.383594256181     1.007825032230

  Charge       = 0
  Multiplicity = 2
  Basis Set: CC-PVTZ
    Blend: CC-PVTZ
  Basis Set: (CC-PVTZ AUX)
    Blend: CC-PVTZ-JKFIT

    Orbital Energies [Eh]
    ---------------------

    Alpha Occupied:

       1A1   -10.320030     2A1    -0.600308     3A1    -0.315128
       1B1    -0.268814

    Alpha Virtual:

       1B2    -0.154681     4A1    -0.009144     5A1     0.259391
       2B1     0.284797     2B2     0.304178     6A1     0.314162
       7A1     0.448819     3B1     0.539883     3B2     0.541961
       1A2     0.651917     8A1     0.657642     9A1     0.848148
       4B1     0.926944     4B2     0.928284    10A1     1.190831
       5B1     1.891620     5B2     1.918451    11A1     2.093624
      12A1     2.440756     6B1     2.539405     6B2     2.542725
       2A2     2.588492    13A1     2.592922    14A1     2.611285
       7B1     2.632594     7B2     2.635189     3A2     2.876680
      15A1     2.889305     8B1     2.969551     8B2     2.986221
      16A1     3.175467     4A2     3.293333    17A1     3.294212
      18A1     3.610998     9B2     3.637202     9B1     3.638992
      10B2     3.967500    10B1     3.968364    19A1     4.154802
      20A1     5.543128

    Beta Occupied:

       1A1   -10.304396     2A1    -0.549106     3A1    -0.302702

    Beta Virtual:

       1B2    -0.138206     1B1    -0.090858     4A1     0.000173
       5A1     0.259515     2B2     0.311506     6A1     0.322633
       2B1     0.340425     7A1     0.470535     3B2     0.541840
       3B1     0.559371     8A1     0.694918     1A2     0.695486
       9A1     0.860261     4B2     0.929167     4B1     0.948790
      10A1     1.194843     5B2     1.929204     5B1     1.972800
      11A1     2.105770    12A1     2.438078     6B2     2.546459
       6B1     2.577081    13A1     2.613785     2A2     2.623759
      14A1     2.641142     7B2     2.691455     7B1     2.692094
      15A1     2.953854     3A2     2.954449     8B2     2.993412
       8B1     3.037115    16A1     3.199515     4A2     3.294408
      17A1     3.294992    18A1     3.628292     9B2     3.629637
       9B1     3.636300    10B2     3.963636    10B1     3.977352
      19A1     4.151910    20A1     5.555142

    Final Occupation by Irrep:
             A1    A2    B1    B2
    DOCC [     3,    0,    0,    0 ]
    SOCC [     0,    0,    1,    0 ]
    NA   [     3,    0,    1,    0 ]
    NB   [     3,    0,    0,    0 ]

  @DF-UKS Final Energy:   -38.45929920127383

   => Energetics <=

    Nuclear Repulsion Energy =              2.1169967542385764
    One-Electron Energy =                 -55.2635236343426328
    Two-Electron Energy =                  19.1558999198476023
    DFT Exchange-Correlation Energy =      -4.4686722410173783
    Empirical Dispersion Energy =           0.0000000000000000
    VV10 Nonlocal Energy =                  0.0000000000000000
    Total Energy =                        -38.4592992012738293

  UHF NO Occupations:
  HONO-2 :    2 A1 1.9992792
  HONO-1 :    3 A1 1.9984222
  HONO-0 :    1 B1 1.0000000
  LUNO+0 :    4 A1 0.0015778
  LUNO+1 :    5 A1 0.0007208
  LUNO+2 :    6 A1 0.0000007
  LUNO+3 :    7 A1 0.0000000

Computation Completed

Properties will be evaluated at   0.000000,   0.000000,   0.000000 [a0]

Properties computed using the B3LYP density matrix

 Multipole Moments:

 ------------------------------------------------------------------------------------
     Multipole            Electronic (a.u.)      Nuclear  (a.u.)        Total (a.u.)
 ------------------------------------------------------------------------------------

 L = 1.  Multiply by 2.5417464519 to convert [e a0] to [Debye]
 Dipole X            :          0.0000000            0.0000000            0.0000000
 Dipole Y            :          0.0000000            0.0000000            0.0000000
 Dipole Z            :         -1.0322982            1.2970774            0.2647792
 Magnitude           :                                                    0.2647792

 L = 2.  Multiply by 1.3450342976 to convert [e a0^2] to [Debye ang]
 Quadrupole XX       :         -5.9427460            0.0000000           -5.9427460
 Quadrupole XY       :          0.0000000            0.0000000            0.0000000
 Quadrupole XZ       :          0.0000000            0.0000000            0.0000000
 Quadrupole YY       :         -4.4851513            0.0000000           -4.4851513
 Quadrupole YZ       :          0.0000000            0.0000000            0.0000000
 Quadrupole ZZ       :        -12.9103753            7.1255247           -5.7848506
 Traceless XX        :          1.8366782           -2.3751749           -0.5384967
 Traceless YY        :          3.2942729           -2.3751749            0.9190980
 Traceless ZZ        :         -5.1309511            4.7503498           -0.3806013

 ------------------------------------------------------------------------------------
  ==> Computing MBIS Charges <==

  Electron Count from Grid (Expected Number):  7.00000 ( 7.00000)
  Difference:  0.00000

  MBIS Charges: (a.u.)
   Center  Symbol  Z      Pop.       Charge
      1       C    6    5.994974    0.005026
      2       H    1    1.005026   -0.005026

  MBIS Dipoles: [e a0]
   Center  Symbol  Z        X           Y           Z
      1       C    6   -0.000000   -0.000000    0.196312
      2       H    1   -0.000000    0.000000    0.082712

  MBIS Quadrupoles: [e a0^2]
   Center  Symbol  Z      XX        XY        XZ        YY        YZ        ZZ
      1       C    6   -5.0485    0.0000   -0.0000   -3.6650    0.0000   -5.2309
      2       H    1   -0.8942   -0.0000   -0.0000   -0.8201    0.0000   -0.8662

  MBIS Octupoles: [e a0^3]
   Center  Symbol  Z      XXX       XXY       XXZ       XYY       XYZ       XZZ       YYY       YYZ       YZZ       ZZZ
      1       C    6   -0.0000    0.0000    0.2188   -0.0000   -0.0000   -0.0000    0.0000    0.1683    0.0000    0.2866
      2       H    1   -0.0000    0.0000    0.0202   -0.0000   -0.0000   -0.0000    0.0000   -0.0580    0.0000    0.0514

  MBIS Radial Moments:
   Center  Symbol  Z      [a0^2]      [a0^3]      [a0^4]
      1       C    6   13.944428   34.642066   102.804503
      2       H    1    2.580508    5.912915   16.223221

  MBIS Valence Widths: [a0]
   Center  Symbol  Z     Width
      1       C    6    0.523928
      2       H    1    0.465109

*** tstop() called on Mac.lan at Sun Aug 10 17:09:38 2025
Module time:
	user time   =       2.89 seconds =       0.05 minutes
	system time =       2.10 seconds =       0.04 minutes
	total time  =          1 seconds =       0.02 minutes
Total time:
	user time   =      12.09 seconds =       0.20 minutes
	system time =       4.32 seconds =       0.07 minutes
	total time  =          2 seconds =       0.03 minutes

    Psi4 stopped on: Sunday, 10 August 2025 05:09PM
    Psi4 wall time for execution: 0:00:01.60

*** Psi4 exiting successfully. Buy a developer a beer!
