                               Psi4 1.9.1 release

  ==> Input File <==

--------------------------------------------------------------------------
molecule {
0 2
N           0.000000           0.000000           0.000000
C           0.000000           0.000000           1.402458
}

set {
basis              cc-pvtz
reference          uks
maxiter            500
DAMPING_PERCENTAGE 1
E_CONVERGENCE      1.0E-8
D_CONVERGENCE      1.0E-8
DIIS_MAX_VECS      400
MBIS_MAXITER       8000
guess              read
}

E, wfn = energy('b3lyp', restart_file='last_wfn', return_wfn=True)
properties('b3lyp','MBIS_CHARGES', wfn=wfn)
wfn.to_file('last_wfn')
--------------------------------------------------------------------------

    Molecular point group: c2v
  Charge       = 0
  Multiplicity = 2
  Basis Set: CC-PVTZ
    Blend: CC-PVTZ
  Basis Set: (CC-PVTZ AUX)
    Blend: CC-PVTZ-JKFIT
  @DF-UKS Final Energy:   -92.67595843807484
    Total Energy =                        -92.6759584380748436
 Dipole X            :          0.0000000            0.0000000            0.0000000
 Dipole Y            :          0.0000000            0.0000000            0.0000000
 Dipole Z            :          0.4077282            0.0018798            0.4096080
 Magnitude           :                                                    0.4096080
    Molecular point group: c2v

    Geometry (in Angstrom), charge = 0, multiplicity = 2:

       Center              X                  Y                   Z               Mass
    ------------   -----------------  -----------------  -----------------  -----------------
         N            0.000000000000     0.000000000000    -0.647211787235    14.003074004430
         C            0.000000000000     0.000000000000     0.755246212765    12.000000000000

  Charge       = 0
  Multiplicity = 2
  Basis Set: CC-PVTZ
    Blend: CC-PVTZ
  Basis Set: (CC-PVTZ AUX)
    Blend: CC-PVTZ-JKFIT

    Orbital Energies [Eh]
    ---------------------

    Alpha Occupied:

       1A1   -14.439466     2A1   -10.352267     3A1    -0.887343
       4A1    -0.548421     5A1    -0.410439     1B2    -0.354186
       1B1    -0.354186

    Alpha Virtual:

       2B2    -0.091013     2B1    -0.091013     6A1     0.148384
       7A1     0.289489     3B2     0.289763     3B1     0.289763
       8A1     0.340854     9A1     0.435728     4B2     0.501699
       4B1     0.501699     1A2     0.625689    10A1     0.625689
       5B1     0.740805     5B2     0.740805    11A1     0.871309
      12A1     1.066559     2A2     1.101097    13A1     1.101097
       6B2     1.406446     6B1     1.406446    14A1     1.621495
       7B2     1.958497     7B1     1.958497    15A1     2.126423
       8B2     2.626411     8B1     2.626411     3A2     2.628467
      16A1     2.628467     9B2     2.634897     9B1     2.634897
      17A1     2.877990    10B2     2.898168    10B1     2.898168
       4A2     2.899250    18A1     2.899252    19A1     2.920649
      11B2     3.240298    11B1     3.240298    20A1     3.334370
      12B2     3.876455    12B1     3.876455     5A2     4.108289
      21A1     4.108289    22A1     4.458782     6A2     4.458796
      23A1     4.459588    13B2     4.545239    13B1     4.545239
      24A1     4.937947    14B2     5.011696    14B1     5.011696
      25A1     5.406926    26A1     8.715379

    Beta Occupied:

       1A1   -14.432136     2A1   -10.339925     3A1    -0.860014
       4A1    -0.481327     1B2    -0.346838     1B1    -0.346838

    Beta Virtual:

       5A1    -0.254764     2B2    -0.073409     2B1    -0.073409
       6A1     0.160946     3B2     0.296804     3B1     0.296804
       7A1     0.322069     8A1     0.378319     9A1     0.465799
       4B2     0.502888     4B1     0.502888     1A2     0.633088
      10A1     0.633088     5B1     0.768865     5B2     0.768865
      11A1     0.883797     2A2     1.101960    12A1     1.101960
      13A1     1.102136     6B2     1.429188     6B1     1.429188
      14A1     1.650715     7B2     1.970372     7B1     1.970372
      15A1     2.174576     8B2     2.637369     8B1     2.637369
       3A2     2.650827    16A1     2.650827     9B2     2.656005
       9B1     2.656005     4A2     2.920640    17A1     2.920643
      10B2     2.930376    10B1     2.930376    18A1     2.938413
      19A1     2.963549    11B2     3.280246    11B1     3.280246
      20A1     3.383119    12B2     3.871479    12B1     3.871479
      21A1     4.119433     5A2     4.119433    22A1     4.459659
       6A2     4.459673    23A1     4.498772    13B2     4.577092
      13B1     4.577092    24A1     4.988350    14B2     5.045586
      14B1     5.045586    25A1     5.428162    26A1     8.734756

    Final Occupation by Irrep:
             A1    A2    B1    B2
    DOCC [     4,    0,    1,    1 ]
    SOCC [     1,    0,    0,    0 ]
    NA   [     5,    0,    1,    1 ]
    NB   [     4,    0,    1,    1 ]

  @DF-UKS Final Energy:   -92.67595843798414

   => Energetics <=

    Nuclear Repulsion Energy =             15.8474926508601328
    One-Electron Energy =                -155.9179803292680049
    Two-Electron Energy =                  57.0730427152559443
    DFT Exchange-Correlation Energy =      -9.6785134748322097
    Empirical Dispersion Energy =           0.0000000000000000
    VV10 Nonlocal Energy =                  0.0000000000000000
    Total Energy =                        -92.6759584379841215

  UHF NO Occupations:
  HONO-2 :    1 B2 1.9987556
  HONO-1 :    4 A1 1.9974695
  HONO-0 :    5 A1 1.0000000
  LUNO+0 :    6 A1 0.0025305
  LUNO+1 :    2 B2 0.0012444
  LUNO+2 :    2 B1 0.0012444
  LUNO+3 :    7 A1 0.0001901

Computation Completed

Properties will be evaluated at   0.000000,   0.000000,   0.000000 [a0]

Properties computed using the B3LYP density matrix

 Multipole Moments:

 ------------------------------------------------------------------------------------
     Multipole            Electronic (a.u.)      Nuclear  (a.u.)        Total (a.u.)
 ------------------------------------------------------------------------------------

 L = 1.  Multiply by 2.5417464519 to convert [e a0] to [Debye]
 Dipole X            :          0.0000000            0.0000000            0.0000000
 Dipole Y            :          0.0000000            0.0000000            0.0000000
 Dipole Z            :          0.4077282            0.0018798            0.4096080
 Magnitude           :                                                    0.4096080

 L = 2.  Multiply by 1.3450342976 to convert [e a0^2] to [Debye ang]
 Quadrupole XX       :         -8.6837159            0.0000000           -8.6837159
 Quadrupole XY       :          0.0000000            0.0000000            0.0000000
 Quadrupole XZ       :          0.0000000            0.0000000            0.0000000
 Quadrupole YY       :         -8.6837159            0.0000000           -8.6837159
 Quadrupole YZ       :          0.0000000            0.0000000            0.0000000
 Quadrupole ZZ       :        -30.2736309           22.6925555           -7.5810754
 Traceless XX        :          7.1966383           -7.5641852           -0.3675468
 Traceless YY        :          7.1966383           -7.5641852           -0.3675468
 Traceless ZZ        :        -14.3932767           15.1283703            0.7350936

 ------------------------------------------------------------------------------------
  ==> Computing MBIS Charges <==

  Electron Count from Grid (Expected Number): 13.00000 (13.00000)
  Difference:  0.00000

  MBIS Charges: (a.u.)
   Center  Symbol  Z      Pop.       Charge
      1       N    7    7.186989   -0.186989
      2       C    6    5.813012    0.186988

  MBIS Dipoles: [e a0]
   Center  Symbol  Z        X           Y           Z
      1       N    7   -0.000000   -0.000000   -0.245742
      2       C    6    0.000000   -0.000000    0.159782

  MBIS Quadrupoles: [e a0^2]
   Center  Symbol  Z      XX        XY        XZ        YY        YZ        ZZ
      1       N    7   -4.4480    0.0000   -0.0000   -4.4480    0.0000   -4.4277
      2       C    6   -4.2357    0.0000    0.0000   -4.2357    0.0000   -4.3117

  MBIS Octupoles: [e a0^3]
   Center  Symbol  Z      XXX       XXY       XXZ       XYY       XYZ       XZZ       YYY       YYZ       YZZ       ZZZ
      1       N    7    0.0000   -0.0000   -0.3677    0.0000    0.0000   -0.0000   -0.0000   -0.3677   -0.0000   -0.9269
      2       C    6   -0.0000   -0.0000    0.3379   -0.0000   -0.0000    0.0000    0.0000    0.3379   -0.0000    0.6998

  MBIS Radial Moments:
   Center  Symbol  Z      [a0^2]      [a0^3]      [a0^4]
      1       N    7   13.323769   28.804337   74.193668
      2       C    6   12.783108   30.897855   88.755279

  MBIS Valence Widths: [a0]
   Center  Symbol  Z     Width
      1       N    7    0.451522
      2       C    6    0.512395

*** tstop() called on Mac.lan at Sun Aug 10 17:14:16 2025
Module time:
	user time   =       3.78 seconds =       0.06 minutes
	system time =       1.89 seconds =       0.03 minutes
	total time  =          1 seconds =       0.02 minutes
Total time:
	user time   =      23.00 seconds =       0.38 minutes
	system time =       4.34 seconds =       0.07 minutes
	total time  =          3 seconds =       0.05 minutes

    Psi4 stopped on: Sunday, 10 August 2025 05:14PM
    Psi4 wall time for execution: 0:00:02.64

*** Psi4 exiting successfully. Buy a developer a beer!
