                               Psi4 1.9.1 release

  ==> Input File <==

--------------------------------------------------------------------------
molecule {
0 1
O           0.000000           0.000000           0.000000
C           0.000000           0.000000           1.006623
}

set {
basis              cc-pvtz
reference          uks
maxiter            500
DAMPING_PERCENTAGE 1
E_CONVERGENCE      1.0E-8
D_CONVERGENCE      1.0E-8
DIIS_MAX_VECS      400
MBIS_MAXITER       8000
guess              read
}

E, wfn = energy('b3lyp', restart_file='last_wfn', return_wfn=True)
properties('b3lyp','MBIS_CHARGES', wfn=wfn)
wfn.to_file('last_wfn')
--------------------------------------------------------------------------

    Molecular point group: c2v
  Charge       = 0
  Multiplicity = 1
  Basis Set: CC-PVTZ
    Blend: CC-PVTZ
  Basis Set: (CC-PVTZ AUX)
    Blend: CC-PVTZ-JKFIT
  @DF-UKS Final Energy:  -113.31393007449830
    Total Energy =                       -113.3139300744983018
 Dipole X            :          0.0000000            0.0000000            0.0000000
 Dipole Y            :          0.0000000            0.0000000            0.0000000
 Dipole Z            :         -0.2059522           -0.0020733           -0.2080255
 Magnitude           :                                                    0.2080255
    Molecular point group: c2v

    Geometry (in Angstrom), charge = 0, multiplicity = 1:

       Center              X                  Y                   Z               Mass
    ------------   -----------------  -----------------  -----------------  -----------------
         O            0.000000000000     0.000000000000    -0.431488224349    15.994914619570
         C            0.000000000000     0.000000000000     0.575134775651    12.000000000000

  Charge       = 0
  Multiplicity = 1
  Basis Set: CC-PVTZ
    Blend: CC-PVTZ
  Basis Set: (CC-PVTZ AUX)
    Blend: CC-PVTZ-JKFIT

    Orbital Energies [Eh]
    ---------------------

    Alpha Occupied:

       1A1   -19.230141     2A1   -10.249397     3A1    -1.238803
       4A1    -0.583207     1B1    -0.528451     1B2    -0.528451
       5A1    -0.370551

    Alpha Virtual:

       2B2     0.016187     2B1     0.016187     6A1     0.161248
       3B1     0.287870     3B2     0.287870     7A1     0.304174
       8A1     0.534772     4B2     0.607264     4B1     0.607264
       9A1     0.633175     1A2     0.633175    10A1     0.732150
       5B2     0.906045     5B1     0.906045    11A1     1.145633
      12A1     1.498683     2A2     1.525716    13A1     1.525716
      14A1     1.901422     6B2     1.910838     6B1     1.910838
       7B2     1.972308     7B1     1.972308    15A1     2.581691
       8B2     2.633404     8B1     2.633404    16A1     2.868637
       3A2     2.868638    17A1     2.956118     4A2     2.956118
       9B1     2.985860     9B2     2.985860    18A1     3.067608
      10B2     3.346524    10B1     3.346524    19A1     3.548427
      11B2     4.178828    11B1     4.178828    20A1     4.858791
      12B1     5.086074    12B2     5.086074     5A2     5.662889
      21A1     5.662889    22A1     6.175437     6A2     6.236010
      23A1     6.236016    13B1     6.530257    13B2     6.530257
      14B2     6.741994    14B1     6.741994    24A1     6.869926
      25A1     7.722676    26A1    13.975540

    Beta Occupied:

       1A1   -19.230141     2A1   -10.249397     3A1    -1.238803
       4A1    -0.583207     1B1    -0.528451     1B2    -0.528451
       5A1    -0.370551

    Beta Virtual:

       2B2     0.016187     2B1     0.016187     6A1     0.161248
       3B1     0.287870     3B2     0.287870     7A1     0.304174
       8A1     0.534772     4B2     0.607264     4B1     0.607264
       9A1     0.633175     1A2     0.633175    10A1     0.732150
       5B2     0.906045     5B1     0.906045    11A1     1.145633
      12A1     1.498683     2A2     1.525716    13A1     1.525716
      14A1     1.901422     6B2     1.910838     6B1     1.910838
       7B2     1.972308     7B1     1.972308    15A1     2.581691
       8B2     2.633404     8B1     2.633404    16A1     2.868637
       3A2     2.868638    17A1     2.956118     4A2     2.956118
       9B1     2.985860     9B2     2.985860    18A1     3.067608
      10B2     3.346524    10B1     3.346524    19A1     3.548427
      11B2     4.178828    11B1     4.178828    20A1     4.858791
      12B1     5.086074    12B2     5.086074     5A2     5.662889
      21A1     5.662889    22A1     6.175437     6A2     6.236010
      23A1     6.236016    13B1     6.530257    13B2     6.530257
      14B2     6.741994    14B1     6.741994    24A1     6.869926
      25A1     7.722676    26A1    13.975540

    Final Occupation by Irrep:
             A1    A2    B1    B2
    DOCC [     5,    0,    1,    1 ]
    SOCC [     0,    0,    0,    0 ]
    NA   [     5,    0,    1,    1 ]
    NB   [     5,    0,    1,    1 ]

  @DF-UKS Final Energy:  -113.31393007450795

   => Energetics <=

    Nuclear Repulsion Energy =             25.2333854006514855
    One-Electron Energy =                -203.4747531178585973
    Two-Electron Energy =                  76.2806378596745844
    DFT Exchange-Correlation Energy =     -11.3532002169754271
    Empirical Dispersion Energy =           0.0000000000000000
    VV10 Nonlocal Energy =                  0.0000000000000000
    Total Energy =                       -113.3139300745079510

  UHF NO Occupations:
  HONO-2 :    1 B1 2.0000000
  HONO-1 :    4 A1 2.0000000
  HONO-0 :    5 A1 2.0000000
  LUNO+0 :    6 A1 0.0000000
  LUNO+1 :    7 A1 0.0000000
  LUNO+2 :    8 A1 0.0000000
  LUNO+3 :    9 A1 0.0000000

Computation Completed

Properties will be evaluated at   0.000000,   0.000000,   0.000000 [a0]

Properties computed using the B3LYP density matrix

 Multipole Moments:

 ------------------------------------------------------------------------------------
     Multipole            Electronic (a.u.)      Nuclear  (a.u.)        Total (a.u.)
 ------------------------------------------------------------------------------------

 L = 1.  Multiply by 2.5417464519 to convert [e a0] to [Debye]
 Dipole X            :          0.0000000            0.0000000            0.0000000
 Dipole Y            :          0.0000000            0.0000000            0.0000000
 Dipole Z            :         -0.2059522           -0.0020733           -0.2080255
 Magnitude           :                                                    0.2080255

 L = 2.  Multiply by 1.3450342976 to convert [e a0^2] to [Debye ang]
 Quadrupole XX       :         -7.3545510            0.0000000           -7.3545510
 Quadrupole XY       :          0.0000000            0.0000000            0.0000000
 Quadrupole XZ       :          0.0000000            0.0000000            0.0000000
 Quadrupole YY       :         -7.3545510            0.0000000           -7.3545510
 Quadrupole YZ       :          0.0000000            0.0000000            0.0000000
 Quadrupole ZZ       :        -21.4375042           12.4063676           -9.0311366
 Traceless XX        :          4.6943177           -4.1354559            0.5588618
 Traceless YY        :          4.6943177           -4.1354559            0.5588618
 Traceless ZZ        :         -9.3886354            8.2709117           -1.1177237

 ------------------------------------------------------------------------------------
  ==> Computing MBIS Charges <==

  Electron Count from Grid (Expected Number): 14.00000 (14.00000)
  Difference:  0.00000

  MBIS Charges: (a.u.)
   Center  Symbol  Z      Pop.       Charge
      1       O    8    8.063412   -0.063412
      2       C    6    5.936588    0.063412

  MBIS Dipoles: [e a0]
   Center  Symbol  Z        X           Y           Z
      1       O    8   -0.000000   -0.000000   -0.033673
      2       C    6   -0.000000    0.000000   -0.294978

  MBIS Quadrupoles: [e a0^2]
   Center  Symbol  Z      XX        XY        XZ        YY        YZ        ZZ
      1       O    8   -3.4006    0.0000    0.0000   -3.4006    0.0000   -3.6800
      2       C    6   -3.9540    0.0000    0.0000   -3.9540    0.0000   -4.7976

  MBIS Octupoles: [e a0^3]
   Center  Symbol  Z      XXX       XXY       XXZ       XYY       XYZ       XZZ       YYY       YYZ       YZZ       ZZZ
      1       O    8    0.0000   -0.0000    0.0390   -0.0000    0.0000   -0.0000   -0.0000    0.0390    0.0000    0.0523
      2       C    6   -0.0000    0.0000   -0.3559   -0.0000    0.0000   -0.0000    0.0000   -0.3559    0.0000   -1.0395

  MBIS Radial Moments:
   Center  Symbol  Z      [a0^2]      [a0^3]      [a0^4]
      1       O    8   10.481077   18.727960   40.187505
      2       C    6   12.705626   30.269276   85.541355

  MBIS Valence Widths: [a0]
   Center  Symbol  Z     Width
      1       O    8    0.369496
      2       C    6    0.501302

*** tstop() called on Mac.lan at Sun Aug 10 17:16:47 2025
Module time:
	user time   =       4.42 seconds =       0.07 minutes
	system time =       2.60 seconds =       0.04 minutes
	total time  =          1 seconds =       0.02 minutes
Total time:
	user time   =      17.72 seconds =       0.30 minutes
	system time =       4.66 seconds =       0.08 minutes
	total time  =          2 seconds =       0.03 minutes

    Psi4 stopped on: Sunday, 10 August 2025 05:16PM
    Psi4 wall time for execution: 0:00:02.16

*** Psi4 exiting successfully. Buy a developer a beer!
