                               Psi4 1.9.1 release

  ==> Input File <==

--------------------------------------------------------------------------
molecule {
0 2
O           0.000000           0.000000           0.000000
N           0.000000           0.000000           1.403207
}

set {
basis              cc-pvtz
reference          uks
maxiter            500
DAMPING_PERCENTAGE 1
E_CONVERGENCE      1.0E-8
D_CONVERGENCE      1.0E-8
DIIS_MAX_VECS      400
MBIS_MAXITER       8000
guess              read
}

E, wfn = energy('b3lyp', restart_file='last_wfn', return_wfn=True)
properties('b3lyp','MBIS_CHARGES', wfn=wfn)
wfn.to_file('last_wfn')
--------------------------------------------------------------------------

    Molecular point group: c2v
  Charge       = 0
  Multiplicity = 2
  Basis Set: CC-PVTZ
    Blend: CC-PVTZ
  Basis Set: (CC-PVTZ AUX)
    Blend: CC-PVTZ-JKFIT
  @DF-UKS Final Energy:  -129.86725108507281
    Total Energy =                       -129.8672510850728088
 Dipole X            :          0.0000000            0.0000000            0.0000000
 Dipole Y            :          0.0000000            0.0000000            0.0000000
 Dipole Z            :          0.2057356           -0.0053205            0.2004151
 Magnitude           :                                                    0.2004151
    Molecular point group: c2v

    Geometry (in Angstrom), charge = 0, multiplicity = 2:

       Center              X                  Y                   Z               Mass
    ------------   -----------------  -----------------  -----------------  -----------------
         O            0.000000000000     0.000000000000    -0.655017631709    15.994914619570
         N            0.000000000000     0.000000000000     0.748189368291    14.003074004430

  Charge       = 0
  Multiplicity = 2
  Basis Set: CC-PVTZ
    Blend: CC-PVTZ
  Basis Set: (CC-PVTZ AUX)
    Blend: CC-PVTZ-JKFIT

    Orbital Energies [Eh]
    ---------------------

    Alpha Occupied:

       1A1   -19.270493     2A1   -14.511410     3A1    -1.091933
       4A1    -0.742968     1B1    -0.469155     5A1    -0.467436
       1B2    -0.433390     2B1    -0.295838

    Alpha Virtual:

       2B2    -0.187278     6A1     0.073990     7A1     0.395148
       3B1     0.416731     3B2     0.423931     8A1     0.472971
       9A1     0.564887     4B1     0.596756     4B2     0.604796
       1A2     0.938787    10A1     0.940332     5B2     1.010793
       5B1     1.012473    11A1     1.144029     2A2     1.472557
      12A1     1.473758    13A1     1.509826     6B1     1.853717
       6B2     1.854690    14A1     2.040534     7B1     2.742998
       7B2     2.758426    15A1     3.015143     8B1     3.437754
       8B2     3.448316    16A1     3.740886     3A2     3.750002
      17A1     3.751643     9B1     3.779425     9B2     3.779834
      10B1     3.961235    10B2     3.962325    18A1     4.272681
       4A2     4.303804    19A1     4.308298    11B1     4.544326
      11B2     4.552038    20A1     4.682945    12B1     5.056850
      12B2     5.057038     5A2     5.206160    21A1     5.207327
      22A1     5.342034    13B1     5.754147    13B2     5.754885
       6A2     6.135747    23A1     6.138684    24A1     6.296934
      14B1     6.566163    14B2     6.571322    25A1     7.364825
      26A1     8.985618

    Beta Occupied:

       1A1   -19.266234     2A1   -14.490637     3A1    -1.074915
       4A1    -0.696223     5A1    -0.450979     1B2    -0.433891
       1B1    -0.396626

    Beta Virtual:

       2B2    -0.166208     2B1    -0.125118     6A1     0.092752
       7A1     0.401803     3B2     0.438815     3B1     0.460326
       8A1     0.489982     9A1     0.570508     4B2     0.598900
       4B1     0.617802    10A1     0.976840     1A2     0.976848
       5B2     1.016715     5B1     1.040368    11A1     1.149448
       2A2     1.483521    12A1     1.483709    13A1     1.526441
       6B2     1.853621     6B1     1.877555    14A1     2.047638
       7B2     2.787221     7B1     2.823220    15A1     3.028513
       8B2     3.442211     8B1     3.474399    16A1     3.757173
       3A2     3.786483    17A1     3.792768     9B2     3.840147
       9B1     3.840255    10B2     3.968108    10B1     3.999111
      18A1     4.283086    19A1     4.388843     4A2     4.389200
      11B2     4.570966    11B1     4.605457    20A1     4.717623
      12B2     5.065995    12B1     5.066008    21A1     5.213763
       5A2     5.214506    22A1     5.356121    13B2     5.748512
      13B1     5.777766    23A1     6.151912     6A2     6.152501
      24A1     6.302971    14B2     6.560976    14B1     6.592159
      25A1     7.375734    26A1     8.998364

    Final Occupation by Irrep:
             A1    A2    B1    B2
    DOCC [     5,    0,    1,    1 ]
    SOCC [     0,    0,    1,    0 ]
    NA   [     5,    0,    2,    1 ]
    NB   [     5,    0,    1,    1 ]

  @DF-UKS Final Energy:  -129.86725107423763

   => Energetics <=

    Nuclear Repulsion Energy =             21.1187114926878188
    One-Electron Energy =                -219.0516036125125652
    Two-Electron Energy =                  80.3374195045871886
    DFT Exchange-Correlation Energy =     -12.2717784590000711
    Empirical Dispersion Energy =           0.0000000000000000
    VV10 Nonlocal Energy =                  0.0000000000000000
    Total Energy =                       -129.8672510742376289

  UHF NO Occupations:
  HONO-2 :    1 B1 1.9989311
  HONO-1 :    1 B2 1.9851924
  HONO-0 :    2 B1 1.0000000
  LUNO+0 :    2 B2 0.0148076
  LUNO+1 :    3 B1 0.0010689
  LUNO+2 :    6 A1 0.0006700
  LUNO+3 :    7 A1 0.0001538

Computation Completed

Properties will be evaluated at   0.000000,   0.000000,   0.000000 [a0]

Properties computed using the B3LYP density matrix

 Multipole Moments:

 ------------------------------------------------------------------------------------
     Multipole            Electronic (a.u.)      Nuclear  (a.u.)        Total (a.u.)
 ------------------------------------------------------------------------------------

 L = 1.  Multiply by 2.5417464519 to convert [e a0] to [Debye]
 Dipole X            :          0.0000000            0.0000000            0.0000000
 Dipole Y            :          0.0000000            0.0000000            0.0000000
 Dipole Z            :          0.2057333           -0.0053205            0.2004128
 Magnitude           :                                                    0.2004128

 L = 2.  Multiply by 1.3450342976 to convert [e a0^2] to [Debye ang]
 Quadrupole XX       :         -8.1949872            0.0000000           -8.1949872
 Quadrupole XY       :          0.0000000            0.0000000            0.0000000
 Quadrupole XZ       :          0.0000000            0.0000000            0.0000000
 Quadrupole YY       :         -7.4439106            0.0000000           -7.4439106
 Quadrupole YZ       :          0.0000000            0.0000000            0.0000000
 Quadrupole ZZ       :        -34.3417470           26.2505265           -8.0912205
 Traceless XX        :          8.4652277           -8.7501755           -0.2849478
 Traceless YY        :          9.2163043           -8.7501755            0.4661288
 Traceless ZZ        :        -17.6815320           17.5003510           -0.1811810

 ------------------------------------------------------------------------------------
  ==> Computing MBIS Charges <==

  Electron Count from Grid (Expected Number): 15.00000 (15.00000)
  Difference: -0.00000

  MBIS Charges: (a.u.)
   Center  Symbol  Z      Pop.       Charge
      1       O    8    8.121933   -0.121933
      2       N    7    6.878066    0.121934

  MBIS Dipoles: [e a0]
   Center  Symbol  Z        X           Y           Z
      1       O    8   -0.000000    0.000000   -0.027527
      2       N    7   -0.000000    0.000000   -0.095390

  MBIS Quadrupoles: [e a0^2]
   Center  Symbol  Z      XX        XY        XZ        YY        YZ        ZZ
      1       O    8   -4.0386    0.0000    0.0000   -3.7561   -0.0000   -3.8759
      2       N    7   -4.1564    0.0000    0.0000   -3.6878    0.0000   -4.0707

  MBIS Octupoles: [e a0^3]
   Center  Symbol  Z      XXX       XXY       XXZ       XYY       XYZ       XZZ       YYY       YYZ       YZZ       ZZZ
      1       O    8   -0.0000   -0.0000    0.0070   -0.0000    0.0000    0.0000   -0.0000   -0.0621   -0.0000   -0.2826
      2       N    7   -0.0000   -0.0000   -0.0678   -0.0000   -0.0000    0.0000   -0.0000    0.0845    0.0000    0.2190

  MBIS Radial Moments:
   Center  Symbol  Z      [a0^2]      [a0^3]      [a0^4]
      1       O    8   11.670580   22.067654   49.959621
      2       N    7   11.914875   25.041571   62.738161

  MBIS Valence Widths: [a0]
   Center  Symbol  Z     Width
      1       O    8    0.388900
      2       N    7    0.439017

*** tstop() called on Mac.lan at Sun Aug 10 17:21:04 2025
Module time:
	user time   =       4.06 seconds =       0.07 minutes
	system time =       1.62 seconds =       0.03 minutes
	total time  =          1 seconds =       0.02 minutes
Total time:
	user time   =      19.84 seconds =       0.33 minutes
	system time =       3.81 seconds =       0.06 minutes
	total time  =          2 seconds =       0.03 minutes

    Psi4 stopped on: Sunday, 10 August 2025 05:21PM
    Psi4 wall time for execution: 0:00:02.28

*** Psi4 exiting successfully. Buy a developer a beer!
