                               Psi4 1.9.1 release

  ==> Input File <==

--------------------------------------------------------------------------
molecule {
0 3
C           0.000000           0.000000           0.000000
C           0.000000           0.000000           1.713605
}

set {
basis              cc-pvtz
reference          uks
maxiter            500
DAMPING_PERCENTAGE 1
E_CONVERGENCE      1.0E-8
D_CONVERGENCE      1.0E-8
DIIS_MAX_VECS      400
MBIS_MAXITER       8000
guess              read
}

E, wfn = energy('b3lyp', restart_file='last_wfn', return_wfn=True)
properties('b3lyp','MBIS_CHARGES', wfn=wfn)
wfn.to_file('last_wfn')
--------------------------------------------------------------------------

    Molecular point group: d2h
  Charge       = 0
  Multiplicity = 3
  Basis Set: CC-PVTZ
    Blend: CC-PVTZ
  Basis Set: (CC-PVTZ AUX)
    Blend: CC-PVTZ-JKFIT
  @DF-UKS Final Energy:   -75.85291192344076
    Total Energy =                        -75.8529119234407574
 Dipole X            :          0.0000000            0.0000000            0.0000000
 Dipole Y            :          0.0000000            0.0000000            0.0000000
 Dipole Z            :          0.0000000            0.0000000            0.0000000
 Magnitude           :                                                    0.0000000
    Molecular point group: d2h

    Geometry (in Angstrom), charge = 0, multiplicity = 3:

       Center              X                  Y                   Z               Mass
    ------------   -----------------  -----------------  -----------------  -----------------
         C            0.000000000000     0.000000000000    -0.856802500000    12.000000000000
         C            0.000000000000     0.000000000000     0.856802500000    12.000000000000

  Charge       = 0
  Multiplicity = 3
  Basis Set: CC-PVTZ
    Blend: CC-PVTZ
  Basis Set: (CC-PVTZ AUX)
    Blend: CC-PVTZ-JKFIT

    Orbital Energies [Eh]
    ---------------------

    Alpha Occupied:

       1Ag   -10.342216     1B1u  -10.342036     2Ag    -0.716170
       2B1u   -0.511623     3Ag    -0.347128     1B3u   -0.314125
       1B2u   -0.285191

    Alpha Virtual:

       1B2g   -0.134144     1B3g   -0.106720     3B1u    0.069945
       4B1u    0.257465     2B3u    0.274876     4Ag     0.286836
       2B2u    0.289619     5Ag     0.329959     2B2g    0.337391
       2B3g    0.349869     1B1g    0.569200     6Ag     0.569648
       3B3u    0.592384     3B2u    0.613925     5B1u    0.616118
       1Au     0.766131     6B1u    0.766551     7Ag     1.024085
       3B2g    1.032707     3B3g    1.050006     7B1u    1.083911
       4B3u    1.843679     4B2u    1.865664     8Ag     1.923590
       4B2g    1.981057     4B3g    2.005729     5B3u    2.373371
       5B2u    2.397120     9Ag     2.403189     2B1g    2.406543
      10Ag     2.429861     8B1u    2.466736     6B3u    2.585754
       6B2u    2.585866     5B2g    2.690274     5B3g    2.690358
       3B1g    2.870876    11Ag     2.870975     9B1u    2.873616
       2Au     2.873952    10B1u    2.983744     6B2g    2.997075
       6B3g    3.020048     7B3u    3.036786     3Au     3.037528
      11B1u    3.039483     7B2u    3.060362    12B1u    3.370775
      12Ag     3.490997     7B2g    3.646483     7B3g    3.668786
      13Ag     3.925297    13B1u    5.883532

    Beta Occupied:

       1Ag   -10.327185     1B1u  -10.327121     2Ag    -0.653968
       2B1u   -0.432377     1B2u   -0.269350

    Beta Virtual:

       3Ag    -0.199287     1B3u   -0.183303     1B3g   -0.088161
       1B2g   -0.055391     3B1u    0.114495     2B2u    0.295415
       4B1u    0.305513     2B3u    0.306362     4Ag     0.315825
       2B3g    0.355191     5Ag     0.357235     2B2g    0.363942
       1B1g    0.593712     6Ag     0.595864     5B1u    0.636570
       3B2u    0.641253     3B3u    0.649690     1Au     0.788638
       6B1u    0.790605     7Ag     1.068130     3B3g    1.073181
       3B2g    1.077097     7B1u    1.123842     4B2u    1.880361
       4B3u    1.893909     8Ag     1.976381     4B3g    2.016027
       4B2g    2.027993     5B2u    2.425337     5B3u    2.434590
       2B1g    2.448974     9Ag     2.450995    10Ag     2.481009
       8B1u    2.512336     6B2u    2.615679     6B3u    2.616413
       5B3g    2.719869     5B2g    2.720601     2Au     2.905376
       3B1g    2.908016     9B1u    2.909056    11Ag     2.912396
      10B1u    3.048113     6B3g    3.057943     6B2g    3.073373
       3Au     3.082753    11B1u    3.086308     7B2u    3.103716
       7B3u    3.117097    12B1u    3.422425    12Ag     3.550606
       7B3g    3.704497     7B2g    3.711140    13Ag     3.961764
      13B1u    5.917141

    Final Occupation by Irrep:
             Ag   B1g   B2g   B3g    Au   B1u   B2u   B3u
    DOCC [     2,    0,    0,    0,    0,    2,    1,    0 ]
    SOCC [     1,    0,    0,    0,    0,    0,    0,    1 ]
    NA   [     3,    0,    0,    0,    0,    2,    1,    1 ]
    NB   [     2,    0,    0,    0,    0,    2,    1,    0 ]

  @DF-UKS Final Energy:   -75.85291192343851

   => Energetics <=

    Nuclear Repulsion Energy =             11.1171358534317992
    One-Electron Energy =                -123.0064445595477594
    Two-Electron Energy =                  44.4391737053902318
    DFT Exchange-Correlation Energy =      -8.4027769227127873
    Empirical Dispersion Energy =           0.0000000000000000
    VV10 Nonlocal Energy =                  0.0000000000000000
    Total Energy =                        -75.8529119234385121

  UHF NO Occupations:
  HONO-2 :    2B1u 1.9976126
  HONO-1 :    1B3u 1.0000000
  HONO-0 :    3 Ag 1.0000000
  LUNO+0 :    3B1u 0.0023874
  LUNO+1 :    4 Ag 0.0004397
  LUNO+2 :    2B2u 0.0001777
  LUNO+3 :    4B1u 0.0000006

Computation Completed

Properties will be evaluated at   0.000000,   0.000000,   0.000000 [a0]

Properties computed using the B3LYP density matrix

 Multipole Moments:

 ------------------------------------------------------------------------------------
     Multipole            Electronic (a.u.)      Nuclear  (a.u.)        Total (a.u.)
 ------------------------------------------------------------------------------------

 L = 1.  Multiply by 2.5417464519 to convert [e a0] to [Debye]
 Dipole X            :          0.0000000            0.0000000            0.0000000
 Dipole Y            :          0.0000000            0.0000000            0.0000000
 Dipole Z            :          0.0000000            0.0000000            0.0000000
 Magnitude           :                                                    0.0000000

 L = 2.  Multiply by 1.3450342976 to convert [e a0^2] to [Debye ang]
 Quadrupole XX       :         -8.5443062            0.0000000           -8.5443062
 Quadrupole XY       :          0.0000000            0.0000000            0.0000000
 Quadrupole XZ       :          0.0000000            0.0000000            0.0000000
 Quadrupole YY       :        -10.2031289            0.0000000          -10.2031289
 Quadrupole YZ       :          0.0000000            0.0000000            0.0000000
 Quadrupole ZZ       :        -40.0536505           31.4586753           -8.5949752
 Traceless XX        :         11.0560556          -10.4862251            0.5698305
 Traceless YY        :          9.3972330          -10.4862251           -1.0889921
 Traceless ZZ        :        -20.4532886           20.9724502            0.5191616

 ------------------------------------------------------------------------------------
  ==> Computing MBIS Charges <==

  Electron Count from Grid (Expected Number): 12.00000 (12.00000)
  Difference:  0.00000

  MBIS Charges: (a.u.)
   Center  Symbol  Z      Pop.       Charge
      1       C    6    6.000000   -0.000000
      2       C    6    6.000000   -0.000000

  MBIS Dipoles: [e a0]
   Center  Symbol  Z        X           Y           Z
      1       C    6   -0.000000    0.000000   -0.153011
      2       C    6   -0.000000   -0.000000    0.153011

  MBIS Quadrupoles: [e a0^2]
   Center  Symbol  Z      XX        XY        XZ        YY        YZ        ZZ
      1       C    6   -4.2722    0.0000   -0.0000   -5.1016   -0.0000   -4.7930
      2       C    6   -4.2722    0.0000    0.0000   -5.1016    0.0000   -4.7930

  MBIS Octupoles: [e a0^3]
   Center  Symbol  Z      XXX       XXY       XXZ       XYY       XYZ       XZZ       YYY       YYZ       YZZ       ZZZ
      1       C    6   -0.0000   -0.0000   -0.2604   -0.0000    0.0000   -0.0000    0.0000   -0.5241    0.0000   -1.0122
      2       C    6   -0.0000   -0.0000    0.2604   -0.0000   -0.0000   -0.0000    0.0000    0.5241    0.0000    1.0122

  MBIS Radial Moments:
   Center  Symbol  Z      [a0^2]      [a0^3]      [a0^4]
      1       C    6   14.166692   35.425036   105.437304
      2       C    6   14.166692   35.425036   105.437304

  MBIS Valence Widths: [a0]
   Center  Symbol  Z     Width
      1       C    6    0.528033
      2       C    6    0.528033

*** tstop() called on Mac.lan at Sun Aug 10 17:04:43 2025
Module time:
	user time   =       3.70 seconds =       0.06 minutes
	system time =       1.83 seconds =       0.03 minutes
	total time  =          0 seconds =       0.00 minutes
Total time:
	user time   =      16.13 seconds =       0.27 minutes
	system time =       3.93 seconds =       0.07 minutes
	total time  =          1 seconds =       0.02 minutes

    Psi4 stopped on: Sunday, 10 August 2025 05:04PM
    Psi4 wall time for execution: 0:00:01.96

*** Psi4 exiting successfully. Buy a developer a beer!
