                               Psi4 1.9.1 release

  ==> Input File <==

--------------------------------------------------------------------------
molecule {
0 2
O           0.000000           0.000000           0.000000
N           0.000000           0.000000           1.697880
}

set {
basis              cc-pvtz
reference          uks
maxiter            500
DAMPING_PERCENTAGE 1
E_CONVERGENCE      1.0E-8
D_CONVERGENCE      1.0E-8
DIIS_MAX_VECS      400
MBIS_MAXITER       8000
guess              read
}

E, wfn = energy('b3lyp', restart_file='last_wfn', return_wfn=True)
properties('b3lyp','MBIS_CHARGES', wfn=wfn)
wfn.to_file('last_wfn')
--------------------------------------------------------------------------

    Molecular point group: c2v
  Charge       = 0
  Multiplicity = 2
  Basis Set: CC-PVTZ
    Blend: CC-PVTZ
  Basis Set: (CC-PVTZ AUX)
    Blend: CC-PVTZ-JKFIT
  @DF-UKS Final Energy:  -129.77091641138102
    Total Energy =                       -129.7709164113810232
 Dipole X            :          0.0000000            0.0000000            0.0000000
 Dipole Y            :          0.0000000            0.0000000            0.0000000
 Dipole Z            :          0.2942301           -0.0064378            0.2877923
 Magnitude           :                                                    0.2877923
    Molecular point group: c2v

    Geometry (in Angstrom), charge = 0, multiplicity = 2:

       Center              X                  Y                   Z               Mass
    ------------   -----------------  -----------------  -----------------  -----------------
         O            0.000000000000     0.000000000000    -0.792571114972    15.994914619570
         N            0.000000000000     0.000000000000     0.905308885028    14.003074004430

  Charge       = 0
  Multiplicity = 2
  Basis Set: CC-PVTZ
    Blend: CC-PVTZ
  Basis Set: (CC-PVTZ AUX)
    Blend: CC-PVTZ-JKFIT

    Orbital Energies [Eh]
    ---------------------

    Alpha Occupied:

       1A1   -19.238074     2A1   -14.506727     3A1    -0.963517
       4A1    -0.786825     5A1    -0.419295     1B1    -0.416278
       1B2    -0.398266     2B1    -0.318453

    Alpha Virtual:

       2B2    -0.183167     6A1    -0.083324     7A1     0.404926
       3B1     0.413958     3B2     0.414128     8A1     0.507054
       9A1     0.596716     4B1     0.602694     4B2     0.625416
       1A2     0.948404    10A1     0.948582     5B2     0.957583
       5B1     0.960268    11A1     1.046704    12A1     1.329891
       2A2     1.473137    13A1     1.478211     6B1     1.696958
       6B2     1.703412    14A1     1.991860     7B2     2.708983
       7B1     2.709034    15A1     2.952031    16A1     3.463041
       8B1     3.519803     8B2     3.549029     9B1     3.768619
       9B2     3.768624     3A2     3.772211    17A1     3.772355
      10B1     3.849427    10B2     3.851996    18A1     4.128351
       4A2     4.276745    19A1     4.276971    11B2     4.384885
      11B1     4.385865    20A1     4.801176    12B1     5.104956
      12B2     5.107152     5A2     5.110868    21A1     5.115656
      22A1     5.249180    13B1     5.310196    13B2     5.316901
      23A1     5.706235     6A2     6.167053    24A1     6.179803
      14B1     6.357536    14B2     6.383732    25A1     6.896384
      26A1     7.838634

    Beta Occupied:

       1A1   -19.263173     2A1   -14.464997     3A1    -1.008135
       4A1    -0.690566     1B2    -0.439686     5A1    -0.418672
       1B1    -0.370239

    Beta Virtual:

       2B2    -0.150555     2B1    -0.139486     6A1    -0.063116
       7A1     0.425079     3B2     0.465061     3B1     0.475464
       8A1     0.531745     4B2     0.577502     9A1     0.599071
       4B1     0.605745     5B2     0.984840     5B1     0.998546
      10A1     1.029136     1A2     1.029286    11A1     1.033048
      12A1     1.348461     2A2     1.435791    13A1     1.438619
       6B2     1.673952     6B1     1.705106    14A1     1.990784
       7B2     2.811681     7B1     2.819406    15A1     2.974056
       8B2     3.464794    16A1     3.483513     8B1     3.520258
       3A2     3.858642    17A1     3.858643     9B2     3.883633
       9B1     3.884082    10B2     3.889109    10B1     3.905603
      18A1     4.157141     4A2     4.431995    19A1     4.432016
      11B2     4.473669    11B1     4.483762    20A1     4.821998
      12B2     5.049591    12B1     5.049871     5A2     5.067385
      21A1     5.069100    13B2     5.259745    13B1     5.303198
      22A1     5.329672    23A1     5.682242     6A2     6.094242
      24A1     6.094353    14B2     6.284296    14B1     6.340493
      25A1     6.866940    26A1     7.791654

    Final Occupation by Irrep:
             A1    A2    B1    B2
    DOCC [     5,    0,    1,    1 ]
    SOCC [     0,    0,    1,    0 ]
    NA   [     5,    0,    2,    1 ]
    NB   [     5,    0,    1,    1 ]

  @DF-UKS Final Energy:  -129.77091641181292

   => Energetics <=

    Nuclear Repulsion Energy =             17.4534854038683527
    One-Electron Energy =                -211.9234951386205239
    Two-Electron Energy =                  76.9615007736856143
    DFT Exchange-Correlation Energy =     -12.2624074507463412
    Empirical Dispersion Energy =           0.0000000000000000
    VV10 Nonlocal Energy =                  0.0000000000000000
    Total Energy =                       -129.7709164118129195

  UHF NO Occupations:
  HONO-2 :    5 A1 1.9745306
  HONO-1 :    1 B2 1.4987860
  HONO-0 :    2 B1 1.0000000
  LUNO+0 :    2 B2 0.5012140
  LUNO+1 :    6 A1 0.0254694
  LUNO+2 :    7 A1 0.0009013
  LUNO+3 :    8 A1 0.0003498

Computation Completed

Properties will be evaluated at   0.000000,   0.000000,   0.000000 [a0]

Properties computed using the B3LYP density matrix

 Multipole Moments:

 ------------------------------------------------------------------------------------
     Multipole            Electronic (a.u.)      Nuclear  (a.u.)        Total (a.u.)
 ------------------------------------------------------------------------------------

 L = 1.  Multiply by 2.5417464519 to convert [e a0] to [Debye]
 Dipole X            :          0.0000000            0.0000000            0.0000000
 Dipole Y            :          0.0000000            0.0000000            0.0000000
 Dipole Z            :          0.2942292           -0.0064378            0.2877915
 Magnitude           :                                                    0.2877915

 L = 2.  Multiply by 1.3450342976 to convert [e a0^2] to [Debye ang]
 Quadrupole XX       :         -8.3083252            0.0000000           -8.3083252
 Quadrupole XY       :          0.0000000            0.0000000            0.0000000
 Quadrupole XZ       :          0.0000000            0.0000000            0.0000000
 Quadrupole YY       :         -7.4962035            0.0000000           -7.4962035
 Quadrupole YZ       :          0.0000000            0.0000000            0.0000000
 Quadrupole ZZ       :        -46.3632187           38.4333746           -7.9298441
 Traceless XX        :         12.4142573          -12.8111249           -0.3968676
 Traceless YY        :         13.2263789          -12.8111249            0.4152541
 Traceless ZZ        :        -25.6406362           25.6222497           -0.0183865

 ------------------------------------------------------------------------------------
  ==> Computing MBIS Charges <==

  Electron Count from Grid (Expected Number): 15.00000 (15.00000)
  Difference: -0.00000

  MBIS Charges: (a.u.)
   Center  Symbol  Z      Pop.       Charge
      1       O    8    8.117421   -0.117421
      2       N    7    6.882578    0.117422

  MBIS Dipoles: [e a0]
   Center  Symbol  Z        X           Y           Z
      1       O    8    0.000000   -0.000000   -0.021702
      2       N    7    0.000000   -0.000000   -0.067257

  MBIS Quadrupoles: [e a0^2]
   Center  Symbol  Z      XX        XY        XZ        YY        YZ        ZZ
      1       O    8   -4.2826    0.0000    0.0000   -3.6264   -0.0000   -3.8653
      2       N    7   -4.0258   -0.0000    0.0000   -3.8698   -0.0000   -3.9797

  MBIS Octupoles: [e a0^3]
   Center  Symbol  Z      XXX       XXY       XXZ       XYY       XYZ       XZZ       YYY       YYZ       YZZ       ZZZ
      1       O    8    0.0000   -0.0000    0.0264    0.0000   -0.0000    0.0000   -0.0000   -0.0684   -0.0000   -0.2917
      2       N    7    0.0000   -0.0000    0.0314   -0.0000    0.0000    0.0000   -0.0000   -0.0130   -0.0000    0.2706

  MBIS Radial Moments:
   Center  Symbol  Z      [a0^2]      [a0^3]      [a0^4]
      1       O    8   11.774270   22.423822   51.115870
      2       N    7   11.875249   24.923052   62.418754

  MBIS Valence Widths: [a0]
   Center  Symbol  Z     Width
      1       O    8    0.390662
      2       N    7    0.438036

*** tstop() called on Mac.lan at Sun Aug 10 17:21:44 2025
Module time:
	user time   =       3.56 seconds =       0.06 minutes
	system time =       2.17 seconds =       0.04 minutes
	total time  =          0 seconds =       0.00 minutes
Total time:
	user time   =      17.54 seconds =       0.29 minutes
	system time =       4.55 seconds =       0.08 minutes
	total time  =          2 seconds =       0.03 minutes

    Psi4 stopped on: Sunday, 10 August 2025 05:21PM
    Psi4 wall time for execution: 0:00:02.14

*** Psi4 exiting successfully. Buy a developer a beer!
