                               Psi4 1.9.1 release

  ==> Input File <==

--------------------------------------------------------------------------
molecule {
0 2
N           0.000000           0.000000           0.000000
C           0.000000           0.000000           1.722817
}

set {
basis              cc-pvtz
reference          uks
maxiter            500
DAMPING_PERCENTAGE 1
E_CONVERGENCE      1.0E-8
D_CONVERGENCE      1.0E-8
DIIS_MAX_VECS      400
MBIS_MAXITER       8000
guess              read
}

E, wfn = energy('b3lyp', restart_file='last_wfn', return_wfn=True)
properties('b3lyp','MBIS_CHARGES', wfn=wfn)
wfn.to_file('last_wfn')
--------------------------------------------------------------------------

    Molecular point group: c2v
  Charge       = 0
  Multiplicity = 2
  Basis Set: CC-PVTZ
    Blend: CC-PVTZ
  Basis Set: (CC-PVTZ AUX)
    Blend: CC-PVTZ-JKFIT
  @DF-UKS Final Energy:   -92.53560150193825
    Total Energy =                        -92.5356015019382454
 Dipole X            :          0.0000000            0.0000000            0.0000000
 Dipole Y            :          0.0000000            0.0000000            0.0000000
 Dipole Z            :          0.4317278            0.0023092            0.4340370
 Magnitude           :                                                    0.4340370
    Molecular point group: c2v

    Geometry (in Angstrom), charge = 0, multiplicity = 2:

       Center              X                  Y                   Z               Mass
    ------------   -----------------  -----------------  -----------------  -----------------
         N            0.000000000000     0.000000000000    -0.795052307911    14.003074004430
         C            0.000000000000     0.000000000000     0.927764692089    12.000000000000

  Charge       = 0
  Multiplicity = 2
  Basis Set: CC-PVTZ
    Blend: CC-PVTZ
  Basis Set: (CC-PVTZ AUX)
    Blend: CC-PVTZ-JKFIT

    Orbital Energies [Eh]
    ---------------------

    Alpha Occupied:

       1A1   -14.459324     2A1   -10.394036     3A1    -0.809978
       4A1    -0.585466     5A1    -0.393690     1B2    -0.316986
       1B1    -0.316986

    Alpha Virtual:

       2B2    -0.150441     2B1    -0.150441     6A1     0.004807
       7A1     0.253295     3B1     0.292793     3B2     0.292793
       8A1     0.328477     9A1     0.435089     4B2     0.489502
       4B1     0.489502     1A2     0.633738    10A1     0.633738
       5B2     0.668904     5B1     0.668904    11A1     0.824372
      12A1     0.997962    13A1     1.059725     2A2     1.059726
       6B2     1.278790     6B1     1.278790    14A1     1.446316
       7B1     1.907676     7B2     1.907676    15A1     2.151473
      16A1     2.569684     8B1     2.572078     8B2     2.572078
      17A1     2.607157     3A2     2.607157     9B1     2.623423
       9B2     2.623423    18A1     2.876273     4A2     2.876279
      10B1     2.888667    10B2     2.888667    19A1     3.018853
      11B2     3.037337    11B1     3.037337    20A1     3.367354
      21A1     3.793682    12B1     3.867099    12B2     3.867099
      22A1     3.905397     5A2     3.905398    13B2     4.150200
      13B1     4.150200     6A2     4.415627    23A1     4.415652
      24A1     4.457655    14B1     4.686064    14B2     4.686064
      25A1     5.428175    26A1     6.196274

    Beta Occupied:

       1A1   -14.449795     2A1   -10.385201     3A1    -0.776064
       4A1    -0.532180     1B2    -0.309259     1B1    -0.309259

    Beta Virtual:

       5A1    -0.241890     2B2    -0.137801     2B1    -0.137801
       6A1     0.056315     7A1     0.284499     3B1     0.297503
       3B2     0.297503     8A1     0.347383     9A1     0.463083
       4B2     0.492317     4B1     0.492317    10A1     0.638396
       1A2     0.638396     5B2     0.694457     5B1     0.694457
      11A1     0.837639    12A1     1.034197    13A1     1.059819
       2A2     1.059819     6B2     1.305074     6B1     1.305074
      14A1     1.484803     7B1     1.916682     7B2     1.916682
      15A1     2.196206     8B1     2.597144     8B2     2.597144
      16A1     2.614574     9B1     2.628051     9B2     2.628051
      17A1     2.628896     3A2     2.628896    18A1     2.884933
       4A2     2.884940    10B1     2.903636    10B2     2.903636
      19A1     3.076786    11B2     3.077126    11B1     3.077126
      20A1     3.404847    21A1     3.827493    12B1     3.863417
      12B2     3.863417    22A1     3.924390     5A2     3.924390
      13B1     4.184110    13B2     4.184110     6A2     4.415793
      23A1     4.415818    24A1     4.523762    14B1     4.732946
      14B2     4.732946    25A1     5.471592    26A1     6.213656

    Final Occupation by Irrep:
             A1    A2    B1    B2
    DOCC [     4,    0,    1,    1 ]
    SOCC [     1,    0,    0,    0 ]
    NA   [     5,    0,    1,    1 ]
    NB   [     4,    0,    1,    1 ]

  @DF-UKS Final Energy:   -92.53560149966313

   => Energetics <=

    Nuclear Repulsion Energy =             12.9006405486711575
    One-Electron Energy =                -149.9266153803126826
    Two-Electron Energy =                  54.0665885975715526
    DFT Exchange-Correlation Energy =      -9.5762152655931700
    Empirical Dispersion Energy =           0.0000000000000000
    VV10 Nonlocal Energy =                  0.0000000000000000
    Total Energy =                        -92.5356014996631302

  UHF NO Occupations:
  HONO-2 :    1 B1 1.9992795
  HONO-1 :    4 A1 1.9957643
  HONO-0 :    5 A1 1.0000000
  LUNO+0 :    6 A1 0.0042357
  LUNO+1 :    2 B1 0.0007205
  LUNO+2 :    2 B2 0.0007205
  LUNO+3 :    7 A1 0.0003117

Computation Completed

Properties will be evaluated at   0.000000,   0.000000,   0.000000 [a0]

Properties computed using the B3LYP density matrix

 Multipole Moments:

 ------------------------------------------------------------------------------------
     Multipole            Electronic (a.u.)      Nuclear  (a.u.)        Total (a.u.)
 ------------------------------------------------------------------------------------

 L = 1.  Multiply by 2.5417464519 to convert [e a0] to [Debye]
 Dipole X            :          0.0000000            0.0000000            0.0000000
 Dipole Y            :          0.0000000            0.0000000            0.0000000
 Dipole Z            :          0.4317300            0.0023092            0.4340392
 Magnitude           :                                                    0.4340392

 L = 2.  Multiply by 1.3450342976 to convert [e a0^2] to [Debye ang]
 Quadrupole XX       :         -9.1647684            0.0000000           -9.1647684
 Quadrupole XY       :          0.0000000            0.0000000            0.0000000
 Quadrupole XZ       :          0.0000000            0.0000000            0.0000000
 Quadrupole YY       :         -9.1647684            0.0000000           -9.1647684
 Quadrupole YZ       :          0.0000000            0.0000000            0.0000000
 Quadrupole ZZ       :        -41.4574914           34.2438018           -7.2136896
 Traceless XX        :         10.7642410          -11.4146006           -0.6503596
 Traceless YY        :         10.7642410          -11.4146006           -0.6503596
 Traceless ZZ        :        -21.5284820           22.8292012            1.3007192

 ------------------------------------------------------------------------------------
  ==> Computing MBIS Charges <==

  Electron Count from Grid (Expected Number): 13.00000 (13.00000)
  Difference: -0.00000

  MBIS Charges: (a.u.)
   Center  Symbol  Z      Pop.       Charge
      1       N    7    7.170791   -0.170791
      2       C    6    5.829209    0.170791

  MBIS Dipoles: [e a0]
   Center  Symbol  Z        X           Y           Z
      1       N    7   -0.000000   -0.000000   -0.289166
      2       C    6   -0.000000   -0.000000    0.167168

  MBIS Quadrupoles: [e a0^2]
   Center  Symbol  Z      XX        XY        XZ        YY        YZ        ZZ
      1       N    7   -4.6839    0.0000   -0.0000   -4.6839   -0.0000   -4.3663
      2       C    6   -4.4809    0.0000    0.0000   -4.4809    0.0000   -4.4419

  MBIS Octupoles: [e a0^3]
   Center  Symbol  Z      XXX       XXY       XXZ       XYY       XYZ       XZZ       YYY       YYZ       YZZ       ZZZ
      1       N    7   -0.0000   -0.0000   -0.4923   -0.0000    0.0000   -0.0000   -0.0000   -0.4923   -0.0000   -1.3341
      2       C    6   -0.0000   -0.0000    0.5104   -0.0000   -0.0000    0.0000   -0.0000    0.5104   -0.0000    1.1551

  MBIS Radial Moments:
   Center  Symbol  Z      [a0^2]      [a0^3]      [a0^4]
      1       N    7   13.733992   30.345090   79.813227
      2       C    6   13.403751   33.226241   97.833617

  MBIS Valence Widths: [a0]
   Center  Symbol  Z     Width
      1       N    7    0.459074
      2       C    6    0.524263

*** tstop() called on Mac.lan at Sun Aug 10 17:16:02 2025
Module time:
	user time   =       3.86 seconds =       0.06 minutes
	system time =       2.03 seconds =       0.03 minutes
	total time  =          1 seconds =       0.02 minutes
Total time:
	user time   =      21.77 seconds =       0.36 minutes
	system time =       4.22 seconds =       0.07 minutes
	total time  =          3 seconds =       0.05 minutes

    Psi4 stopped on: Sunday, 10 August 2025 05:16PM
    Psi4 wall time for execution: 0:00:02.51

*** Psi4 exiting successfully. Buy a developer a beer!
