                               Psi4 1.9.1 release

  ==> Input File <==

--------------------------------------------------------------------------
molecule {
0 2
N           0.000000           0.000000           0.000000
C           0.000000           0.000000           1.701460
}

set {
basis              cc-pvtz
reference          uks
maxiter            500
DAMPING_PERCENTAGE 1
E_CONVERGENCE      1.0E-8
D_CONVERGENCE      1.0E-8
DIIS_MAX_VECS      400
MBIS_MAXITER       8000
guess              read
}

E, wfn = energy('b3lyp', restart_file='last_wfn', return_wfn=True)
properties('b3lyp','MBIS_CHARGES', wfn=wfn)
wfn.to_file('last_wfn')
--------------------------------------------------------------------------

    Molecular point group: c2v
  Charge       = 0
  Multiplicity = 2
  Basis Set: CC-PVTZ
    Blend: CC-PVTZ
  Basis Set: (CC-PVTZ AUX)
    Blend: CC-PVTZ-JKFIT
  @DF-UKS Final Energy:   -92.54408548779206
    Total Energy =                        -92.5440854877920600
 Dipole X            :          0.0000000            0.0000000            0.0000000
 Dipole Y            :          0.0000000            0.0000000            0.0000000
 Dipole Z            :          0.4259463            0.0022806            0.4282269
 Magnitude           :                                                    0.4282269
    Molecular point group: c2v

    Geometry (in Angstrom), charge = 0, multiplicity = 2:

       Center              X                  Y                   Z               Mass
    ------------   -----------------  -----------------  -----------------  -----------------
         N            0.000000000000     0.000000000000    -0.785196396262    14.003074004430
         C            0.000000000000     0.000000000000     0.916263603738    12.000000000000

  Charge       = 0
  Multiplicity = 2
  Basis Set: CC-PVTZ
    Blend: CC-PVTZ
  Basis Set: (CC-PVTZ AUX)
    Blend: CC-PVTZ-JKFIT

    Orbital Energies [Eh]
    ---------------------

    Alpha Occupied:

       1A1   -14.458994     2A1   -10.392234     3A1    -0.813908
       4A1    -0.583652     5A1    -0.395194     1B1    -0.318999
       1B2    -0.318999

    Alpha Virtual:

       2B1    -0.147528     2B2    -0.147528     6A1     0.015140
       7A1     0.253788     3B1     0.292886     3B2     0.292886
       8A1     0.326293     9A1     0.434647     4B2     0.490380
       4B1     0.490380     1A2     0.633328    10A1     0.633328
       5B1     0.672193     5B2     0.672193    11A1     0.830294
      12A1     1.000786    13A1     1.061431     2A2     1.061431
       6B1     1.286823     6B2     1.286823    14A1     1.455444
       7B2     1.910743     7B1     1.910743    15A1     2.151646
       8B2     2.571473     8B1     2.571473    16A1     2.585073
      17A1     2.607244     3A2     2.607244     9B2     2.623938
       9B1     2.623938    18A1     2.877692     4A2     2.877698
      10B2     2.892008    10B1     2.892008    19A1     3.028999
      11B1     3.048688    11B2     3.048688    20A1     3.340455
      21A1     3.823090    12B1     3.866997    12B2     3.866997
      22A1     3.912903     5A2     3.912905    13B2     4.171674
      13B1     4.171674     6A2     4.417444    23A1     4.417465
      24A1     4.484578    14B1     4.701422    14B2     4.701422
      25A1     5.449793    26A1     6.275784

    Beta Occupied:

       1A1   -14.449558     2A1   -10.383231     3A1    -0.780401
       4A1    -0.529209     1B1    -0.311339     1B2    -0.311339

    Beta Virtual:

       5A1    -0.243021     2B1    -0.134641     2B2    -0.134641
       6A1     0.064613     7A1     0.285636     3B1     0.297704
       3B2     0.297704     8A1     0.345878     9A1     0.462372
       4B2     0.493033     4B1     0.493033    10A1     0.638129
       1A2     0.638129     5B1     0.697929     5B2     0.697929
      11A1     0.843247    12A1     1.037222    13A1     1.061528
       2A2     1.061529     6B1     1.313007     6B2     1.313007
      14A1     1.493398     7B2     1.919906     7B1     1.919906
      15A1     2.196615     8B2     2.596269     8B1     2.596269
       9B2     2.628867     9B1     2.628867    16A1     2.629200
       3A2     2.629200    17A1     2.630010    18A1     2.886814
       4A2     2.886820    10B2     2.907788    10B1     2.907788
      19A1     3.087366    11B2     3.088543    11B1     3.088543
      20A1     3.378129    21A1     3.857271    12B1     3.863206
      12B2     3.863206    22A1     3.931526     5A2     3.931526
      13B2     4.205310    13B1     4.205310     6A2     4.417569
      23A1     4.417590    24A1     4.550784    14B1     4.747974
      14B2     4.747974    25A1     5.490381    26A1     6.294476

    Final Occupation by Irrep:
             A1    A2    B1    B2
    DOCC [     4,    0,    1,    1 ]
    SOCC [     1,    0,    0,    0 ]
    NA   [     5,    0,    1,    1 ]
    NB   [     4,    0,    1,    1 ]

  @DF-UKS Final Energy:   -92.54408548552215

   => Energetics <=

    Nuclear Repulsion Energy =             13.0625714669401578
    One-Electron Energy =                -150.2557230332573113
    Two-Electron Energy =                  54.2297335891048746
    DFT Exchange-Correlation Energy =      -9.5806675083098884
    Empirical Dispersion Energy =           0.0000000000000000
    VV10 Nonlocal Energy =                  0.0000000000000000
    Total Energy =                        -92.5440854855221460

  UHF NO Occupations:
  HONO-2 :    1 B1 1.9992432
  HONO-1 :    4 A1 1.9958077
  HONO-0 :    5 A1 1.0000000
  LUNO+0 :    6 A1 0.0041923
  LUNO+1 :    2 B1 0.0007568
  LUNO+2 :    2 B2 0.0007568
  LUNO+3 :    7 A1 0.0003056

Computation Completed

Properties will be evaluated at   0.000000,   0.000000,   0.000000 [a0]

Properties computed using the B3LYP density matrix

 Multipole Moments:

 ------------------------------------------------------------------------------------
     Multipole            Electronic (a.u.)      Nuclear  (a.u.)        Total (a.u.)
 ------------------------------------------------------------------------------------

 L = 1.  Multiply by 2.5417464519 to convert [e a0] to [Debye]
 Dipole X            :          0.0000000            0.0000000            0.0000000
 Dipole Y            :          0.0000000            0.0000000            0.0000000
 Dipole Z            :          0.4259481            0.0022806            0.4282288
 Magnitude           :                                                    0.4282288

 L = 2.  Multiply by 1.3450342976 to convert [e a0^2] to [Debye ang]
 Quadrupole XX       :         -9.1407261            0.0000000           -9.1407261
 Quadrupole XY       :          0.0000000            0.0000000            0.0000000
 Quadrupole XZ       :          0.0000000            0.0000000            0.0000000
 Quadrupole YY       :         -9.1407261            0.0000000           -9.1407261
 Quadrupole YZ       :          0.0000000            0.0000000            0.0000000
 Quadrupole ZZ       :        -40.6382641           33.4000537           -7.2382104
 Traceless XX        :         10.4991793          -11.1333512           -0.6341719
 Traceless YY        :         10.4991793          -11.1333512           -0.6341719
 Traceless ZZ        :        -20.9983587           22.2667025            1.2683438

 ------------------------------------------------------------------------------------
  ==> Computing MBIS Charges <==

  Electron Count from Grid (Expected Number): 13.00000 (13.00000)
  Difference: -0.00000

  MBIS Charges: (a.u.)
   Center  Symbol  Z      Pop.       Charge
      1       N    7    7.171047   -0.171047
      2       C    6    5.828953    0.171047

  MBIS Dipoles: [e a0]
   Center  Symbol  Z        X           Y           Z
      1       N    7   -0.000000   -0.000000   -0.288433
      2       C    6   -0.000000    0.000000    0.166695

  MBIS Quadrupoles: [e a0^2]
   Center  Symbol  Z      XX        XY        XZ        YY        YZ        ZZ
      1       N    7   -4.6713    0.0000   -0.0000   -4.6713   -0.0000   -4.3688
      2       C    6   -4.4694    0.0000    0.0000   -4.4694    0.0000   -4.4388

  MBIS Octupoles: [e a0^3]
   Center  Symbol  Z      XXX       XXY       XXZ       XYY       XYZ       XZZ       YYY       YYZ       YZZ       ZZZ
      1       N    7   -0.0000   -0.0000   -0.4868   -0.0000    0.0000   -0.0000   -0.0000   -0.4868   -0.0000   -1.3184
      2       C    6   -0.0000   -0.0000    0.5031   -0.0000   -0.0000   -0.0000   -0.0000    0.5031   -0.0000    1.1331

  MBIS Radial Moments:
   Center  Symbol  Z      [a0^2]      [a0^3]      [a0^4]
      1       N    7   13.711427   30.257792   79.484951
      2       C    6   13.377671   33.118110   97.379315

  MBIS Valence Widths: [a0]
   Center  Symbol  Z     Width
      1       N    7    0.458707
      2       C    6    0.523776

*** tstop() called on Mac.lan at Sun Aug 10 17:15:59 2025
Module time:
	user time   =       3.71 seconds =       0.06 minutes
	system time =       2.09 seconds =       0.03 minutes
	total time  =          1 seconds =       0.02 minutes
Total time:
	user time   =      24.18 seconds =       0.40 minutes
	system time =       4.47 seconds =       0.07 minutes
	total time  =          3 seconds =       0.05 minutes

    Psi4 stopped on: Sunday, 10 August 2025 05:15PM
    Psi4 wall time for execution: 0:00:02.79

*** Psi4 exiting successfully. Buy a developer a beer!
