                               Psi4 1.9.1 release

  ==> Input File <==

--------------------------------------------------------------------------
molecule {
0 2
O           0.000000           0.000000           0.000000
H           0.000000           0.000000           0.942782
}

set {
basis              cc-pvtz
reference          uks
maxiter            500
DAMPING_PERCENTAGE 1
E_CONVERGENCE      1.0E-8
D_CONVERGENCE      1.0E-8
DIIS_MAX_VECS      400
MBIS_MAXITER       8000
guess              read
}

E, wfn = energy('b3lyp', restart_file='last_wfn', return_wfn=True)
properties('b3lyp','MBIS_CHARGES', wfn=wfn)
wfn.to_file('last_wfn')
--------------------------------------------------------------------------

    Molecular point group: c2v
  Charge       = 0
  Multiplicity = 2
  Basis Set: CC-PVTZ
    Blend: CC-PVTZ
  Basis Set: (CC-PVTZ AUX)
    Blend: CC-PVTZ-JKFIT
  @DF-UKS Final Energy:   -75.76317930715486
    Total Energy =                        -75.7631793071548572
 Dipole X            :          0.0000000            0.0000000            0.0000000
 Dipole Y            :          0.0000000            0.0000000            0.0000000
 Dipole Z            :         -0.1727345            0.8311725            0.6584380
 Magnitude           :                                                    0.6584380
    Molecular point group: c2v

    Geometry (in Angstrom), charge = 0, multiplicity = 2:

       Center              X                  Y                   Z               Mass
    ------------   -----------------  -----------------  -----------------  -----------------
         O            0.000000000000     0.000000000000    -0.055882717668    15.994914619570
         H            0.000000000000     0.000000000000     0.886899282332     1.007825032230

  Charge       = 0
  Multiplicity = 2
  Basis Set: CC-PVTZ
    Blend: CC-PVTZ
  Basis Set: (CC-PVTZ AUX)
    Blend: CC-PVTZ-JKFIT

    Orbital Energies [Eh]
    ---------------------

    Alpha Occupied:

       1A1   -19.194307     2A1    -1.026722     3A1    -0.481975
       1B1    -0.418372     1B2    -0.345562

    Alpha Virtual:

       4A1     0.034385     5A1     0.384247     6A1     0.512357
       2B1     0.528375     2B2     0.564103     3B1     0.692051
       3B2     0.708102     7A1     0.860995     8A1     1.284699
       1A2     1.418187     9A1     1.418695     4B1     1.742141
       4B2     1.780634    10A1     1.856309    11A1     2.449627
       2A2     3.193427    12A1     3.193592     5B1     3.325588
       5B2     3.363236     6B1     3.592900     6B2     3.622857
      13A1     3.707349     7B1     4.061800     7B2     4.095238
      14A1     4.388924    15A1     4.657752     8B1     5.067536
       8B2     5.067797     3A2     5.374777    16A1     5.375422
      17A1     6.136783     4A2     6.137034     9B1     6.301448
       9B2     6.360931    18A1     6.424541    10B1     6.626614
      10B2     6.669369    19A1     7.024904    20A1    10.414114

    Beta Occupied:

       1A1   -19.169055     2A1    -0.957070     3A1    -0.455836
       1B2    -0.320052

    Beta Virtual:

       1B1    -0.171440     4A1     0.040668     5A1     0.391134
       6A1     0.520065     2B2     0.574631     2B1     0.601700
       3B1     0.707240     3B2     0.707313     7A1     0.888689
       8A1     1.297448     1A2     1.470365     9A1     1.476348
       4B2     1.786691     4B1     1.792028    10A1     1.870622
      11A1     2.457305     2A2     3.200258    12A1     3.200975
       5B2     3.369557     5B1     3.383249     6B2     3.627953
       6B1     3.640306    13A1     3.711476     7B2     4.100699
       7B1     4.105356    14A1     4.414528    15A1     4.686566
       8B2     5.137681     8B1     5.140665     3A2     5.419892
      16A1     5.424912     4A2     6.228684    17A1     6.243038
       9B2     6.375235     9B1     6.397880    18A1     6.448916
      10B2     6.675112    10B1     6.677139    19A1     7.051628
      20A1    10.448555

    Final Occupation by Irrep:
             A1    A2    B1    B2
    DOCC [     3,    0,    0,    1 ]
    SOCC [     0,    0,    1,    0 ]
    NA   [     3,    0,    1,    1 ]
    NB   [     3,    0,    0,    1 ]

  @DF-UKS Final Energy:   -75.76317930727171

   => Energetics <=

    Nuclear Repulsion Energy =              4.4903463211643837
    One-Electron Energy =                -112.9611104764165219
    Two-Electron Energy =                  39.9111365625535441
    DFT Exchange-Correlation Energy =      -7.2035517145731092
    Empirical Dispersion Energy =           0.0000000000000000
    VV10 Nonlocal Energy =                  0.0000000000000000
    Total Energy =                        -75.7631793072717130

  UHF NO Occupations:
  HONO-2 :    2 A1 1.9997736
  HONO-1 :    3 A1 1.9993238
  HONO-0 :    1 B1 1.0000000
  LUNO+0 :    4 A1 0.0006762
  LUNO+1 :    5 A1 0.0002264
  LUNO+2 :    2 B2 0.0001532
  LUNO+3 :    6 A1 0.0000006

Computation Completed

Properties will be evaluated at   0.000000,   0.000000,   0.000000 [a0]

Properties computed using the B3LYP density matrix

 Multipole Moments:

 ------------------------------------------------------------------------------------
     Multipole            Electronic (a.u.)      Nuclear  (a.u.)        Total (a.u.)
 ------------------------------------------------------------------------------------

 L = 1.  Multiply by 2.5417464519 to convert [e a0] to [Debye]
 Dipole X            :          0.0000000            0.0000000            0.0000000
 Dipole Y            :          0.0000000            0.0000000            0.0000000
 Dipole Z            :         -0.1727345            0.8311725            0.6584379
 Magnitude           :                                                    0.6584379

 L = 2.  Multiply by 1.3450342976 to convert [e a0^2] to [Debye ang]
 Quadrupole XX       :         -3.9856446            0.0000000           -3.9856446
 Quadrupole XY       :          0.0000000            0.0000000            0.0000000
 Quadrupole XZ       :          0.0000000            0.0000000            0.0000000
 Quadrupole YY       :         -4.8788245            0.0000000           -4.8788245
 Quadrupole YZ       :          0.0000000            0.0000000            0.0000000
 Quadrupole ZZ       :         -6.2074373            2.8981811           -3.3092562
 Traceless XX        :          1.0383242           -0.9660604            0.0722639
 Traceless YY        :          0.1451443           -0.9660604           -0.8209161
 Traceless ZZ        :         -1.1834685            1.9321207            0.7486522

 ------------------------------------------------------------------------------------
  ==> Computing MBIS Charges <==

  Electron Count from Grid (Expected Number):  9.00000 ( 9.00000)
  Difference: -0.00000

  MBIS Charges: (a.u.)
   Center  Symbol  Z      Pop.       Charge
      1       O    8    8.386131   -0.386131
      2       H    1    0.613869    0.386131

  MBIS Dipoles: [e a0]
   Center  Symbol  Z        X           Y           Z
      1       O    8    0.000000    0.000000   -0.058594
      2       H    1   -0.000000    0.000000    0.029101

  MBIS Quadrupoles: [e a0^2]
   Center  Symbol  Z      XX        XY        XZ        YY        YZ        ZZ
      1       O    8   -3.7032    0.0000    0.0000   -4.5602    0.0000   -4.2063
      2       H    1   -0.2824   -0.0000   -0.0000   -0.3186    0.0000   -0.2932

  MBIS Octupoles: [e a0^3]
   Center  Symbol  Z      XXX       XXY       XXZ       XYY       XYZ       XZZ       YYY       YYZ       YZZ       ZZZ
      1       O    8   -0.0000   -0.0000   -0.0386    0.0000   -0.0000    0.0000   -0.0000   -0.0596    0.0000   -0.3152
      2       H    1    0.0000   -0.0000   -0.0046   -0.0000    0.0000   -0.0000    0.0000    0.0083    0.0000    0.0154

  MBIS Radial Moments:
   Center  Symbol  Z      [a0^2]      [a0^3]      [a0^4]
      1       O    8   12.469756   23.925794   54.874744
      2       H    1    0.894215    1.552157    3.220821

  MBIS Valence Widths: [a0]
   Center  Symbol  Z     Width
      1       O    8    0.393974
      2       H    1    0.349203

*** tstop() called on Mac.lan at Sun Aug 10 17:10:25 2025
Module time:
	user time   =       3.28 seconds =       0.05 minutes
	system time =       1.88 seconds =       0.03 minutes
	total time  =          0 seconds =       0.00 minutes
Total time:
	user time   =      12.17 seconds =       0.20 minutes
	system time =       4.26 seconds =       0.07 minutes
	total time  =          1 seconds =       0.02 minutes

    Psi4 stopped on: Sunday, 10 August 2025 05:10PM
    Psi4 wall time for execution: 0:00:01.60

*** Psi4 exiting successfully. Buy a developer a beer!
