                               Psi4 1.9.1 release

  ==> Input File <==

--------------------------------------------------------------------------
molecule {
0 2
O           0.000000           0.000000           0.000000
N           0.000000           0.000000           0.961197
}

set {
basis              cc-pvtz
reference          uks
maxiter            500
DAMPING_PERCENTAGE 1
E_CONVERGENCE      1.0E-8
D_CONVERGENCE      1.0E-8
DIIS_MAX_VECS      400
MBIS_MAXITER       8000
guess              read
}

E, wfn = energy('b3lyp', restart_file='last_wfn', return_wfn=True)
properties('b3lyp','MBIS_CHARGES', wfn=wfn)
wfn.to_file('last_wfn')
--------------------------------------------------------------------------

    Molecular point group: c2v
  Charge       = 0
  Multiplicity = 2
  Basis Set: CC-PVTZ
    Blend: CC-PVTZ
  Basis Set: (CC-PVTZ AUX)
    Blend: CC-PVTZ-JKFIT
  @DF-UKS Final Energy:  -129.83210918415617
    Total Energy =                       -129.8321091841561667
 Dipole X            :          0.0000000            0.0000000            0.0000000
 Dipole Y            :          0.0000000            0.0000000            0.0000000
 Dipole Z            :         -0.2338718           -0.0036445           -0.2375163
 Magnitude           :                                                    0.2375163
    Molecular point group: c2v

    Geometry (in Angstrom), charge = 0, multiplicity = 2:

       Center              X                  Y                   Z               Mass
    ------------   -----------------  -----------------  -----------------  -----------------
         O            0.000000000000     0.000000000000    -0.448687173415    15.994914619570
         N            0.000000000000     0.000000000000     0.512509826585    14.003074004430

  Charge       = 0
  Multiplicity = 2
  Basis Set: CC-PVTZ
    Blend: CC-PVTZ
  Basis Set: (CC-PVTZ AUX)
    Blend: CC-PVTZ-JKFIT

    Orbital Energies [Eh]
    ---------------------

    Alpha Occupied:

       1A1   -19.257126     2A1   -14.406717     3A1    -1.408053
       4A1    -0.664798     1B1    -0.626793     1B2    -0.605218
       5A1    -0.497502     2B1    -0.128088

    Alpha Virtual:

       2B2    -0.019933     6A1     0.241564     3B1     0.390793
       3B2     0.394137     7A1     0.432557     8A1     0.527016
       4B1     0.598184     4B2     0.609221     9A1     0.896714
       1A2     0.903748    10A1     0.906145    11A1     1.185243
       5B1     1.237181     5B2     1.239745     2A2     1.578111
      12A1     1.579537    13A1     1.864405     6B1     2.062245
       6B2     2.065883    14A1     2.351209     7B1     2.780304
       7B2     2.792263    15A1     3.156425    16A1     3.674759
       8B1     3.715256     8B2     3.723086     9B1     3.742588
       9B2     3.743138     3A2     3.839070    17A1     3.840722
      10B1     4.128190    10B2     4.130009     4A2     4.370028
      18A1     4.374496    19A1     4.594583    11B2     4.807389
      11B1     4.807808    12B1     5.096977    12B2     5.097113
      20A1     5.426391     5A2     5.964274    21A1     5.965640
       6A2     6.149861    22A1     6.151850    13B1     6.552963
      13B2     6.554557    23A1     6.697597    24A1     7.208668
      14B1     7.679097    14B2     7.679352    25A1     8.286152
      26A1    18.989498

    Beta Occupied:

       1A1   -19.246086     2A1   -14.393220     3A1    -1.390710
       4A1    -0.633671     1B2    -0.595620     1B1    -0.558306
       5A1    -0.467003

    Beta Virtual:

       2B2    -0.005759     2B1     0.032952     6A1     0.245859
       3B2     0.398579     3B1     0.419510     7A1     0.443762
       8A1     0.537023     4B2     0.614664     4B1     0.634041
       9A1     0.915503     1A2     0.927347    10A1     0.931004
      11A1     1.194161     5B2     1.242975     5B1     1.271696
       2A2     1.605039    12A1     1.605172    13A1     1.877618
       6B2     2.069867     6B1     2.093033    14A1     2.367585
       7B2     2.802980     7B1     2.840120    15A1     3.171820
      16A1     3.690780     8B2     3.731037     8B1     3.762923
       9B2     3.780090     9B1     3.780581     3A2     3.859084
      17A1     3.859708    10B2     4.134213    10B1     4.167437
      18A1     4.424483     4A2     4.425746    19A1     4.613438
      11B2     4.811200    11B1     4.841851    12B2     5.124089
      12B1     5.124102    20A1     5.442002     5A2     5.988688
      21A1     5.988909     6A2     6.187624    22A1     6.187723
      13B2     6.558504    13B1     6.587815    23A1     6.708101
      24A1     7.223031    14B2     7.684310    14B1     7.716288
      25A1     8.305569    26A1    19.006286

    Final Occupation by Irrep:
             A1    A2    B1    B2
    DOCC [     5,    0,    1,    1 ]
    SOCC [     0,    0,    1,    0 ]
    NA   [     5,    0,    2,    1 ]
    NB   [     5,    0,    1,    1 ]

  @DF-UKS Final Energy:  -129.83210917987191

   => Energetics <=

    Nuclear Repulsion Energy =             30.8302291804073505
    One-Electron Energy =                -237.3826315685378177
    Two-Electron Energy =                  89.3392815514267369
    DFT Exchange-Correlation Energy =     -12.6189883431681569
    Empirical Dispersion Energy =           0.0000000000000000
    VV10 Nonlocal Energy =                  0.0000000000000000
    Total Energy =                       -129.8321091798719067

  UHF NO Occupations:
  HONO-2 :    5 A1 1.9996326
  HONO-1 :    1 B1 1.9995363
  HONO-0 :    2 B1 1.0000000
  LUNO+0 :    3 B1 0.0004637
  LUNO+1 :    6 A1 0.0003674
  LUNO+2 :    7 A1 0.0000955
  LUNO+3 :    2 B2 0.0000294

Computation Completed

Properties will be evaluated at   0.000000,   0.000000,   0.000000 [a0]

Properties computed using the B3LYP density matrix

 Multipole Moments:

 ------------------------------------------------------------------------------------
     Multipole            Electronic (a.u.)      Nuclear  (a.u.)        Total (a.u.)
 ------------------------------------------------------------------------------------

 L = 1.  Multiply by 2.5417464519 to convert [e a0] to [Debye]
 Dipole X            :          0.0000000            0.0000000            0.0000000
 Dipole Y            :          0.0000000            0.0000000            0.0000000
 Dipole Z            :         -0.2338719           -0.0036445           -0.2375164
 Magnitude           :                                                    0.2375164

 L = 2.  Multiply by 1.3450342976 to convert [e a0^2] to [Debye ang]
 Quadrupole XX       :         -7.6986698            0.0000000           -7.6986698
 Quadrupole XY       :          0.0000000            0.0000000            0.0000000
 Quadrupole XZ       :          0.0000000            0.0000000            0.0000000
 Quadrupole YY       :         -6.7626926            0.0000000           -6.7626926
 Quadrupole YZ       :          0.0000000            0.0000000            0.0000000
 Quadrupole ZZ       :        -20.8143574           12.3174086           -8.4969488
 Traceless XX        :          4.0599034           -4.1058029           -0.0458994
 Traceless YY        :          4.9958807           -4.1058029            0.8900778
 Traceless ZZ        :         -9.0557841            8.2116057           -0.8441784

 ------------------------------------------------------------------------------------
  ==> Computing MBIS Charges <==

  Electron Count from Grid (Expected Number): 15.00000 (15.00000)
  Difference: -0.00000

  MBIS Charges: (a.u.)
   Center  Symbol  Z      Pop.       Charge
      1       O    8    7.933670    0.066330
      2       N    7    7.066330   -0.066330

  MBIS Dipoles: [e a0]
   Center  Symbol  Z        X           Y           Z
      1       O    8   -0.000000   -0.000000    0.095853
      2       N    7    0.000000   -0.000000   -0.212888

  MBIS Quadrupoles: [e a0^2]
   Center  Symbol  Z      XX        XY        XZ        YY        YZ        ZZ
      1       O    8   -3.4369   -0.0000   -0.0000   -3.1617   -0.0000   -3.6052
      2       N    7   -4.2617   -0.0000    0.0000   -3.6010    0.0000   -4.3023

  MBIS Octupoles: [e a0^3]
   Center  Symbol  Z      XXX       XXY       XXZ       XYY       XYZ       XZZ       YYY       YYZ       YZZ       ZZZ
      1       O    8    0.0000   -0.0000    0.1925    0.0000    0.0000    0.0000   -0.0000    0.1266    0.0000    0.1781
      2       N    7    0.0000   -0.0000   -0.5353    0.0000   -0.0000    0.0000   -0.0000   -0.1747   -0.0000   -0.2354

  MBIS Radial Moments:
   Center  Symbol  Z      [a0^2]      [a0^3]      [a0^4]
      1       O    8   10.203794   18.296682   39.527917
      2       N    7   12.165073   25.642063   64.680092

  MBIS Valence Widths: [a0]
   Center  Symbol  Z     Width
      1       O    8    0.367658
      2       N    7    0.433794

*** tstop() called on Mac.lan at Sun Aug 10 17:19:58 2025
Module time:
	user time   =       3.94 seconds =       0.07 minutes
	system time =       1.82 seconds =       0.03 minutes
	total time  =          1 seconds =       0.02 minutes
Total time:
	user time   =      25.69 seconds =       0.43 minutes
	system time =       4.10 seconds =       0.07 minutes
	total time  =          3 seconds =       0.05 minutes

    Psi4 stopped on: Sunday, 10 August 2025 05:19PM
    Psi4 wall time for execution: 0:00:02.92

*** Psi4 exiting successfully. Buy a developer a beer!
