                               Psi4 1.9.1 release

  ==> Input File <==

--------------------------------------------------------------------------
molecule {
0 2
O           0.000000           0.000000           0.000000
H           0.000000           0.000000           1.336602
}

set {
basis              cc-pvtz
reference          uks
maxiter            500
DAMPING_PERCENTAGE 1
E_CONVERGENCE      1.0E-8
D_CONVERGENCE      1.0E-8
DIIS_MAX_VECS      400
MBIS_MAXITER       8000
guess              read
}

E, wfn = energy('b3lyp', restart_file='last_wfn', return_wfn=True)
properties('b3lyp','MBIS_CHARGES', wfn=wfn)
wfn.to_file('last_wfn')
--------------------------------------------------------------------------

    Molecular point group: c2v
  Charge       = 0
  Multiplicity = 2
  Basis Set: CC-PVTZ
    Blend: CC-PVTZ
  Basis Set: (CC-PVTZ AUX)
    Blend: CC-PVTZ-JKFIT
  @DF-UKS Final Energy:   -75.70847440616653
    Total Energy =                        -75.7084744061665305
 Dipole X            :          0.0000000            0.0000000            0.0000000
 Dipole Y            :          0.0000000            0.0000000            0.0000000
 Dipole Z            :         -0.4761757            1.1783708            0.7021951
 Magnitude           :                                                    0.7021951
    Molecular point group: c2v

    Geometry (in Angstrom), charge = 0, multiplicity = 2:

       Center              X                  Y                   Z               Mass
    ------------   -----------------  -----------------  -----------------  -----------------
         O            0.000000000000     0.000000000000    -0.079226111869    15.994914619570
         H            0.000000000000     0.000000000000     1.257375888131     1.007825032230

  Charge       = 0
  Multiplicity = 2
  Basis Set: CC-PVTZ
    Blend: CC-PVTZ
  Basis Set: (CC-PVTZ AUX)
    Blend: CC-PVTZ-JKFIT

    Orbital Energies [Eh]
    ---------------------

    Alpha Occupied:

       1A1   -19.215837     2A1    -0.961890     3A1    -0.427358
       1B1    -0.408674     1B2    -0.334949

    Alpha Virtual:

       4A1    -0.064677     5A1     0.256892     2B1     0.501297
       2B2     0.529676     6A1     0.564818     3B1     0.673245
       3B2     0.690066     7A1     0.839134     8A1     1.053495
       1A2     1.434850     9A1     1.435649     4B1     1.554319
       4B2     1.592076    10A1     2.012637    11A1     2.334035
       2A2     3.150952    12A1     3.150982    13A1     3.175151
       5B1     3.210592     5B2     3.233993     6B1     3.605787
       6B2     3.629679     7B1     3.663212     7B2     3.699071
      14A1     3.807696    15A1     4.670417     8B1     5.077491
       8B2     5.077786     3A2     5.108079    16A1     5.109647
       9B1     5.415188     9B2     5.463780    17A1     5.857980
      18A1     6.121315     4A2     6.121628    10B1     6.324926
      10B2     6.383369    19A1     6.928430    20A1     7.695336

    Beta Occupied:

       1A1   -19.188459     2A1    -0.880993     3A1    -0.405783
       1B2    -0.307874

    Beta Virtual:

       1B1    -0.158094     4A1    -0.056640     5A1     0.252240
       2B2     0.533668     2B1     0.551560     6A1     0.578786
       3B2     0.689071     3B1     0.697261     7A1     0.859247
       8A1     1.068936     1A2     1.487538     9A1     1.493646
       4B2     1.599646     4B1     1.607020    10A1     2.030443
      11A1     2.319679     2A2     3.138907    12A1     3.139070
      13A1     3.184034     5B2     3.230890     5B1     3.237504
       6B2     3.615820     6B1     3.616955     7B2     3.710246
       7B1     3.734156    14A1     3.805031    15A1     4.690662
       8B2     5.148177     8B1     5.151184     3A2     5.157495
      16A1     5.162824     9B2     5.475526     9B1     5.482069
      17A1     5.888191     4A2     6.215402    18A1     6.230148
      10B2     6.401890    10B1     6.424917    19A1     6.971305
      20A1     7.739973

    Final Occupation by Irrep:
             A1    A2    B1    B2
    DOCC [     3,    0,    0,    1 ]
    SOCC [     0,    0,    1,    0 ]
    NA   [     3,    0,    1,    1 ]
    NB   [     3,    0,    0,    1 ]

  @DF-UKS Final Energy:   -75.70847440606308

   => Energetics <=

    Nuclear Repulsion Energy =              3.1672986314250613
    One-Electron Energy =                -110.5164438339344599
    Two-Electron Energy =                  38.7368736948139230
    DFT Exchange-Correlation Energy =      -7.0962028983675927
    Empirical Dispersion Energy =           0.0000000000000000
    VV10 Nonlocal Energy =                  0.0000000000000000
    Total Energy =                        -75.7084744060630754

  UHF NO Occupations:
  HONO-2 :    2 A1 1.9994576
  HONO-1 :    3 A1 1.9960936
  HONO-0 :    1 B1 1.0000000
  LUNO+0 :    4 A1 0.0039064
  LUNO+1 :    5 A1 0.0005424
  LUNO+2 :    2 B2 0.0001806
  LUNO+3 :    6 A1 0.0000006

Computation Completed

Properties will be evaluated at   0.000000,   0.000000,   0.000000 [a0]

Properties computed using the B3LYP density matrix

 Multipole Moments:

 ------------------------------------------------------------------------------------
     Multipole            Electronic (a.u.)      Nuclear  (a.u.)        Total (a.u.)
 ------------------------------------------------------------------------------------

 L = 1.  Multiply by 2.5417464519 to convert [e a0] to [Debye]
 Dipole X            :          0.0000000            0.0000000            0.0000000
 Dipole Y            :          0.0000000            0.0000000            0.0000000
 Dipole Z            :         -0.4761757            1.1783708            0.7021951
 Magnitude           :                                                    0.7021951

 L = 2.  Multiply by 1.3450342976 to convert [e a0^2] to [Debye ang]
 Quadrupole XX       :         -4.2491228            0.0000000           -4.2491228
 Quadrupole XY       :          0.0000000            0.0000000            0.0000000
 Quadrupole XZ       :          0.0000000            0.0000000            0.0000000
 Quadrupole YY       :         -5.1472339            0.0000000           -5.1472339
 Quadrupole YZ       :          0.0000000            0.0000000            0.0000000
 Quadrupole ZZ       :         -8.5049235            5.8251507           -2.6797727
 Traceless XX        :          1.7179706           -1.9417169           -0.2237463
 Traceless YY        :          0.8198595           -1.9417169           -1.1218574
 Traceless ZZ        :         -2.5378301            3.8834338            1.3456037

 ------------------------------------------------------------------------------------
  ==> Computing MBIS Charges <==

  Electron Count from Grid (Expected Number):  9.00000 ( 9.00000)
  Difference:  0.00000

  MBIS Charges: (a.u.)
   Center  Symbol  Z      Pop.       Charge
      1       O    8    8.302187   -0.302187
      2       H    1    0.697813    0.302187

  MBIS Dipoles: [e a0]
   Center  Symbol  Z        X           Y           Z
      1       O    8   -0.000000   -0.000000   -0.122657
      2       H    1   -0.000000    0.000000    0.061584

  MBIS Quadrupoles: [e a0^2]
   Center  Symbol  Z      XX        XY        XZ        YY        YZ        ZZ
      1       O    8   -3.7379    0.0000   -0.0000   -4.5956   -0.0000   -4.2145
      2       H    1   -0.5112   -0.0000   -0.0000   -0.5517    0.0000   -0.4940

  MBIS Octupoles: [e a0^3]
   Center  Symbol  Z      XXX       XXY       XXZ       XYY       XYZ       XZZ       YYY       YYZ       YZZ       ZZZ
      1       O    8   -0.0000   -0.0000   -0.1629    0.0000   -0.0000    0.0000   -0.0000   -0.1467   -0.0000   -0.6202
      2       H    1    0.0000    0.0000    0.0100    0.0000   -0.0000   -0.0000    0.0000    0.0469    0.0000    0.0840

  MBIS Radial Moments:
   Center  Symbol  Z      [a0^2]      [a0^3]      [a0^4]
      1       O    8   12.547992   24.343947   56.434748
      2       H    1    1.556848    3.326138    8.497347

  MBIS Valence Widths: [a0]
   Center  Symbol  Z     Width
      1       O    8    0.397890
      2       H    1    0.433191

*** tstop() called on Mac.lan at Sun Aug 10 17:11:51 2025
Module time:
	user time   =       3.69 seconds =       0.06 minutes
	system time =       1.27 seconds =       0.02 minutes
	total time  =          1 seconds =       0.02 minutes
Total time:
	user time   =      14.72 seconds =       0.25 minutes
	system time =       3.60 seconds =       0.06 minutes
	total time  =          2 seconds =       0.03 minutes

    Psi4 stopped on: Sunday, 10 August 2025 05:11PM
    Psi4 wall time for execution: 0:00:01.78

*** Psi4 exiting successfully. Buy a developer a beer!
