                               Psi4 1.9.1 release

  ==> Input File <==

--------------------------------------------------------------------------
molecule {
0 2
C           0.000000           0.000000           0.000000
H           0.000000           0.000000           1.417238
}

set {
basis              cc-pvtz
reference          uks
maxiter            500
DAMPING_PERCENTAGE 1
E_CONVERGENCE      1.0E-8
D_CONVERGENCE      1.0E-8
DIIS_MAX_VECS      400
MBIS_MAXITER       8000
guess              read
}

E, wfn = energy('b3lyp', restart_file='last_wfn', return_wfn=True)
properties('b3lyp','MBIS_CHARGES', wfn=wfn)
wfn.to_file('last_wfn')
--------------------------------------------------------------------------

    Molecular point group: c2v
  Charge       = 0
  Multiplicity = 2
  Basis Set: CC-PVTZ
    Blend: CC-PVTZ
  Basis Set: (CC-PVTZ AUX)
    Blend: CC-PVTZ-JKFIT
  @DF-UKS Final Energy:   -38.47064367342495
    Total Energy =                        -38.4706436734249593
 Dipole X            :          0.0000000            0.0000000            0.0000000
 Dipole Y            :          0.0000000            0.0000000            0.0000000
 Dipole Z            :         -0.8883477            1.2256783            0.3373306
 Magnitude           :                                                    0.3373306
    Molecular point group: c2v

    Geometry (in Angstrom), charge = 0, multiplicity = 2:

       Center              X                  Y                   Z               Mass
    ------------   -----------------  -----------------  -----------------  -----------------
         C            0.000000000000     0.000000000000    -0.109805284857    12.000000000000
         H            0.000000000000     0.000000000000     1.307432715143     1.007825032230

  Charge       = 0
  Multiplicity = 2
  Basis Set: CC-PVTZ
    Blend: CC-PVTZ
  Basis Set: (CC-PVTZ AUX)
    Blend: CC-PVTZ-JKFIT

    Orbital Energies [Eh]
    ---------------------

    Alpha Occupied:

       1A1   -10.312532     2A1    -0.606393     3A1    -0.318456
       1B1    -0.266169

    Alpha Virtual:

       1B2    -0.152578     4A1     0.008245     5A1     0.263491
       2B1     0.286585     2B2     0.306114     6A1     0.317200
       7A1     0.449959     3B1     0.543375     3B2     0.545614
       1A2     0.652998     8A1     0.658728     9A1     0.878580
       4B1     0.949665     4B2     0.950760    10A1     1.199694
       5B1     1.898167     5B2     1.924848    11A1     2.113300
      12A1     2.425456     6B1     2.546408     6B2     2.550233
       2A2     2.570255    13A1     2.574567     7B1     2.635088
       7B2     2.637653    14A1     2.663335     3A2     2.882453
      15A1     2.895178     8B1     2.992973     8B2     3.008345
      16A1     3.120911     4A2     3.331680    17A1     3.332703
       9B2     3.674287     9B1     3.676283    18A1     3.699589
      10B2     4.083225    10B1     4.083893    19A1     4.250213
      20A1     5.939489

    Beta Occupied:

       1A1   -10.297157     2A1    -0.557331     3A1    -0.304283

    Beta Virtual:

       1B2    -0.136257     1B1    -0.089266     4A1     0.017053
       5A1     0.265411     2B2     0.313500     6A1     0.325233
       2B1     0.342445     7A1     0.470947     3B2     0.545844
       3B1     0.564400     8A1     0.696106     1A2     0.696543
       9A1     0.891387     4B2     0.951889     4B1     0.971580
      10A1     1.203951     5B2     1.935653     5B1     1.979242
      11A1     2.125777    12A1     2.426092     6B2     2.553732
       6B1     2.584473    13A1     2.602254     2A2     2.603560
      14A1     2.683819     7B2     2.693914     7B1     2.694557
      15A1     2.960338     3A2     2.960658     8B2     3.014617
       8B1     3.057809    16A1     3.144538     4A2     3.335352
      17A1     3.335732     9B2     3.667801     9B1     3.674423
      18A1     3.713649    10B2     4.081120    10B1     4.097118
      19A1     4.249595    20A1     5.953498

    Final Occupation by Irrep:
             A1    A2    B1    B2
    DOCC [     3,    0,    0,    0 ]
    SOCC [     0,    0,    1,    0 ]
    NA   [     3,    0,    1,    0 ]
    NB   [     3,    0,    0,    0 ]

  @DF-UKS Final Energy:   -38.47064367257413

   => Energetics <=

    Nuclear Repulsion Energy =              2.2403176206254702
    One-Electron Energy =                 -55.5215952338698742
    Two-Electron Energy =                  19.2928972860798176
    DFT Exchange-Correlation Energy =      -4.4822633454095353
    Empirical Dispersion Energy =           0.0000000000000000
    VV10 Nonlocal Energy =                  0.0000000000000000
    Total Energy =                        -38.4706436725741270

  UHF NO Occupations:
  HONO-2 :    2 A1 1.9995086
  HONO-1 :    3 A1 1.9985665
  HONO-0 :    1 B1 1.0000000
  LUNO+0 :    4 A1 0.0014335
  LUNO+1 :    5 A1 0.0004914
  LUNO+2 :    6 A1 0.0000007
  LUNO+3 :    7 A1 0.0000000

Computation Completed

Properties will be evaluated at   0.000000,   0.000000,   0.000000 [a0]

Properties computed using the B3LYP density matrix

 Multipole Moments:

 ------------------------------------------------------------------------------------
     Multipole            Electronic (a.u.)      Nuclear  (a.u.)        Total (a.u.)
 ------------------------------------------------------------------------------------

 L = 1.  Multiply by 2.5417464519 to convert [e a0] to [Debye]
 Dipole X            :          0.0000000            0.0000000            0.0000000
 Dipole Y            :          0.0000000            0.0000000            0.0000000
 Dipole Z            :         -0.8883477            1.2256783            0.3373306
 Magnitude           :                                                    0.3373306

 L = 2.  Multiply by 1.3450342976 to convert [e a0^2] to [Debye ang]
 Quadrupole XX       :         -5.8944192            0.0000000           -5.8944192
 Quadrupole XY       :          0.0000000            0.0000000            0.0000000
 Quadrupole XZ       :          0.0000000            0.0000000            0.0000000
 Quadrupole YY       :         -4.4266153            0.0000000           -4.4266153
 Quadrupole YZ       :          0.0000000            0.0000000            0.0000000
 Quadrupole ZZ       :        -12.0848242            6.3626502           -5.7221740
 Traceless XX        :          1.5742003           -2.1208834           -0.5466830
 Traceless YY        :          3.0420043           -2.1208834            0.9211209
 Traceless ZZ        :         -4.6162046            4.2417668           -0.3744378

 ------------------------------------------------------------------------------------
  ==> Computing MBIS Charges <==

  Electron Count from Grid (Expected Number):  7.00000 ( 7.00000)
  Difference:  0.00000

  MBIS Charges: (a.u.)
   Center  Symbol  Z      Pop.       Charge
      1       C    6    6.013775   -0.013775
      2       H    1    0.986225    0.013775

  MBIS Dipoles: [e a0]
   Center  Symbol  Z        X           Y           Z
      1       C    6   -0.000000   -0.000000    0.227128
      2       H    1    0.000000    0.000000    0.073310

  MBIS Quadrupoles: [e a0^2]
   Center  Symbol  Z      XX        XY        XZ        YY        YZ        ZZ
      1       C    6   -5.0693    0.0000    0.0000   -3.6775    0.0000   -5.2692
      2       H    1   -0.8251    0.0000    0.0000   -0.7491    0.0000   -0.8044

  MBIS Octupoles: [e a0^3]
   Center  Symbol  Z      XXX       XXY       XXZ       XYY       XYZ       XZZ       YYY       YYZ       YZZ       ZZZ
      1       C    6   -0.0000   -0.0000    0.2678    0.0000   -0.0000    0.0000   -0.0000    0.2291   -0.0000    0.4150
      2       H    1    0.0000    0.0000    0.0088    0.0000   -0.0000    0.0000    0.0000   -0.0621    0.0000    0.0170

  MBIS Radial Moments:
   Center  Symbol  Z      [a0^2]      [a0^3]      [a0^4]
      1       C    6   14.016065   34.863559   103.655275
      2       H    1    2.378632    5.294844   14.149783

  MBIS Valence Widths: [a0]
   Center  Symbol  Z     Width
      1       C    6    0.523975
      2       H    1    0.450666

*** tstop() called on Mac.lan at Sun Aug 10 17:09:29 2025
Module time:
	user time   =       2.71 seconds =       0.05 minutes
	system time =       1.66 seconds =       0.03 minutes
	total time  =          0 seconds =       0.00 minutes
Total time:
	user time   =      12.12 seconds =       0.20 minutes
	system time =       4.07 seconds =       0.07 minutes
	total time  =          1 seconds =       0.02 minutes

    Psi4 stopped on: Sunday, 10 August 2025 05:09PM
    Psi4 wall time for execution: 0:00:01.58

*** Psi4 exiting successfully. Buy a developer a beer!
