                               Psi4 1.9.1 release

  ==> Input File <==

--------------------------------------------------------------------------
molecule {
0 1
O           0.000000           0.000000           0.000000
C           0.000000           0.000000           1.130727
}

set {
basis              cc-pvtz
reference          uks
maxiter            500
DAMPING_PERCENTAGE 1
E_CONVERGENCE      1.0E-8
D_CONVERGENCE      1.0E-8
DIIS_MAX_VECS      400
MBIS_MAXITER       8000
guess              read
}

E, wfn = energy('b3lyp', restart_file='last_wfn', return_wfn=True)
properties('b3lyp','MBIS_CHARGES', wfn=wfn)
wfn.to_file('last_wfn')
--------------------------------------------------------------------------

    Molecular point group: c2v
  Charge       = 0
  Multiplicity = 1
  Basis Set: CC-PVTZ
    Blend: CC-PVTZ
  Basis Set: (CC-PVTZ AUX)
    Blend: CC-PVTZ-JKFIT
  @DF-UKS Final Energy:  -113.35719362963691
    Total Energy =                       -113.3571936296369103
 Dipole X            :          0.0000000            0.0000000            0.0000000
 Dipole Y            :          0.0000000            0.0000000            0.0000000
 Dipole Z            :         -0.0407196           -0.0023289           -0.0430485
 Magnitude           :                                                    0.0430485
    Molecular point group: c2v

    Geometry (in Angstrom), charge = 0, multiplicity = 1:

       Center              X                  Y                   Z               Mass
    ------------   -----------------  -----------------  -----------------  -----------------
         O            0.000000000000     0.000000000000    -0.484685314615    15.994914619570
         C            0.000000000000     0.000000000000     0.646041685385    12.000000000000

  Charge       = 0
  Multiplicity = 1
  Basis Set: CC-PVTZ
    Blend: CC-PVTZ
  Basis Set: (CC-PVTZ AUX)
    Blend: CC-PVTZ-JKFIT

    Orbital Energies [Eh]
    ---------------------

    Alpha Occupied:

       1A1   -19.239417     2A1   -10.295694     3A1    -1.169274
       4A1    -0.581902     1B2    -0.481260     1B1    -0.481260
       5A1    -0.383970

    Alpha Virtual:

       2B2    -0.034849     2B1    -0.034849     6A1     0.157295
       3B2     0.287346     3B1     0.287346     7A1     0.302523
       8A1     0.535755     9A1     0.593880     4B2     0.611978
       4B1     0.611978    10A1     0.633114     1A2     0.633114
       5B2     0.853346     5B1     0.853346    11A1     1.109983
      12A1     1.303772     2A2     1.495264    13A1     1.495265
       6B2     1.866684     6B1     1.866684    14A1     1.923988
       7B1     1.981677     7B2     1.981677    15A1     2.424268
       8B2     2.630714     8B1     2.630714    16A1     2.804748
       3A2     2.804749    17A1     2.926614     4A2     2.926615
       9B2     2.957973     9B1     2.957973    18A1     3.089017
      10B1     3.216231    10B2     3.216231    19A1     3.356891
      11B2     4.048385    11B1     4.048385    20A1     4.403937
      12B2     5.067454    12B1     5.067454     5A2     5.465547
      21A1     5.465548    22A1     6.087075    13B2     6.211716
      13B1     6.211716    23A1     6.214927     6A2     6.214939
      24A1     6.715656    14B2     6.719613    14B1     6.719613
      25A1     6.967986    26A1    12.151812

    Beta Occupied:

       1A1   -19.239417     2A1   -10.295694     3A1    -1.169274
       4A1    -0.581902     1B2    -0.481260     1B1    -0.481260
       5A1    -0.383970

    Beta Virtual:

       2B2    -0.034849     2B1    -0.034849     6A1     0.157295
       3B2     0.287346     3B1     0.287346     7A1     0.302523
       8A1     0.535755     9A1     0.593880     4B2     0.611978
       4B1     0.611978    10A1     0.633114     1A2     0.633114
       5B2     0.853346     5B1     0.853346    11A1     1.109983
      12A1     1.303772     2A2     1.495264    13A1     1.495265
       6B2     1.866684     6B1     1.866684    14A1     1.923988
       7B1     1.981677     7B2     1.981677    15A1     2.424268
       8B2     2.630714     8B1     2.630714    16A1     2.804748
       3A2     2.804749    17A1     2.926614     4A2     2.926615
       9B2     2.957973     9B1     2.957973    18A1     3.089017
      10B1     3.216231    10B2     3.216231    19A1     3.356891
      11B2     4.048385    11B1     4.048385    20A1     4.403937
      12B2     5.067454    12B1     5.067454     5A2     5.465547
      21A1     5.465548    22A1     6.087075    13B2     6.211716
      13B1     6.211716    23A1     6.214927     6A2     6.214939
      24A1     6.715656    14B2     6.719613    14B1     6.719613
      25A1     6.967986    26A1    12.151812

    Final Occupation by Irrep:
             A1    A2    B1    B2
    DOCC [     5,    0,    1,    1 ]
    SOCC [     0,    0,    0,    0 ]
    NA   [     5,    0,    1,    1 ]
    NB   [     5,    0,    1,    1 ]

  @DF-UKS Final Energy:  -113.35719361421152

   => Energetics <=

    Nuclear Repulsion Energy =             22.4638715730322183
    One-Electron Energy =                -198.2985550147179765
    Two-Electron Energy =                  73.7085395786707238
    DFT Exchange-Correlation Energy =     -11.2310497511964797
    Empirical Dispersion Energy =           0.0000000000000000
    VV10 Nonlocal Energy =                  0.0000000000000000
    Total Energy =                       -113.3571936142115248

  UHF NO Occupations:
  HONO-2 :    4 A1 2.0000000
  HONO-1 :    1 B2 2.0000000
  HONO-0 :    5 A1 2.0000000
  LUNO+0 :    6 A1 0.0000000
  LUNO+1 :    7 A1 0.0000000
  LUNO+2 :    8 A1 0.0000000
  LUNO+3 :    9 A1 0.0000000

Computation Completed

Properties will be evaluated at   0.000000,   0.000000,   0.000000 [a0]

Properties computed using the B3LYP density matrix

 Multipole Moments:

 ------------------------------------------------------------------------------------
     Multipole            Electronic (a.u.)      Nuclear  (a.u.)        Total (a.u.)
 ------------------------------------------------------------------------------------

 L = 1.  Multiply by 2.5417464519 to convert [e a0] to [Debye]
 Dipole X            :          0.0000000            0.0000000            0.0000000
 Dipole Y            :          0.0000000            0.0000000            0.0000000
 Dipole Z            :         -0.0407196           -0.0023289           -0.0430485
 Magnitude           :                                                    0.0430485

 L = 2.  Multiply by 1.3450342976 to convert [e a0^2] to [Debye ang]
 Quadrupole XX       :         -7.5840736            0.0000000           -7.5840736
 Quadrupole XY       :          0.0000000            0.0000000            0.0000000
 Quadrupole XZ       :          0.0000000            0.0000000            0.0000000
 Quadrupole YY       :         -7.5840736            0.0000000           -7.5840736
 Quadrupole YZ       :          0.0000000            0.0000000            0.0000000
 Quadrupole ZZ       :        -24.7334227           15.6540412           -9.0793815
 Traceless XX        :          5.7164497           -5.2180137            0.4984360
 Traceless YY        :          5.7164497           -5.2180137            0.4984360
 Traceless ZZ        :        -11.4328994           10.4360275           -0.9968719

 ------------------------------------------------------------------------------------
  ==> Computing MBIS Charges <==

  Electron Count from Grid (Expected Number): 14.00000 (14.00000)
  Difference:  0.00000

  MBIS Charges: (a.u.)
   Center  Symbol  Z      Pop.       Charge
      1       O    8    8.137147   -0.137147
      2       C    6    5.862853    0.137147

  MBIS Dipoles: [e a0]
   Center  Symbol  Z        X           Y           Z
      1       O    8    0.000000   -0.000000   -0.052801
      2       C    6    0.000000    0.000000   -0.283297

  MBIS Quadrupoles: [e a0^2]
   Center  Symbol  Z      XX        XY        XZ        YY        YZ        ZZ
      1       O    8   -3.6224   -0.0000   -0.0000   -3.6224    0.0000   -3.8282
      2       C    6   -3.9617   -0.0000    0.0000   -3.9617    0.0000   -4.7455

  MBIS Octupoles: [e a0^3]
   Center  Symbol  Z      XXX       XXY       XXZ       XYY       XYZ       XZZ       YYY       YYZ       YZZ       ZZZ
      1       O    8    0.0000    0.0000    0.0103   -0.0000   -0.0000   -0.0000   -0.0000    0.0103   -0.0000   -0.0618
      2       C    6    0.0000   -0.0000   -0.2522    0.0000    0.0000   -0.0000    0.0000   -0.2522    0.0000   -0.8039

  MBIS Radial Moments:
   Center  Symbol  Z      [a0^2]      [a0^3]      [a0^4]
      1       O    8   11.073031   20.247455   44.404435
      2       C    6   12.668856   30.285699   85.823650

  MBIS Valence Widths: [a0]
   Center  Symbol  Z     Width
      1       O    8    0.378167
      2       C    6    0.506088

*** tstop() called on Mac.lan at Sun Aug 10 17:16:32 2025
Module time:
	user time   =       3.69 seconds =       0.06 minutes
	system time =       2.32 seconds =       0.04 minutes
	total time  =          1 seconds =       0.02 minutes
Total time:
	user time   =      15.60 seconds =       0.26 minutes
	system time =       4.61 seconds =       0.08 minutes
	total time  =          2 seconds =       0.03 minutes

    Psi4 stopped on: Sunday, 10 August 2025 05:16PM
    Psi4 wall time for execution: 0:00:01.97

*** Psi4 exiting successfully. Buy a developer a beer!
