                               Psi4 1.9.1 release

  ==> Input File <==

--------------------------------------------------------------------------
molecule {
0 1
N           0.000000           0.000000           0.000000
N           0.000000           0.000000           1.135871
}

set {
basis              cc-pvtz
reference          uks
maxiter            500
DAMPING_PERCENTAGE 1
E_CONVERGENCE      1.0E-8
D_CONVERGENCE      1.0E-8
DIIS_MAX_VECS      400
MBIS_MAXITER       8000
guess              SAP
}

E, wfn = energy('b3lyp', return_wfn=True)
properties('b3lyp','MBIS_CHARGES', wfn=wfn)
wfn.to_file('last_wfn')
--------------------------------------------------------------------------

    Molecular point group: d2h
  Charge       = 0
  Multiplicity = 1
  Basis Set: CC-PVTZ
    Blend: CC-PVTZ
  Basis Set: (CC-PVTZ AUX)
    Blend: CC-PVTZ-JKFIT
  @DF-UKS Final Energy:  -109.56335003859898
    Total Energy =                       -109.5633500385989834
 Dipole X            :          0.0000000            0.0000000            0.0000000
 Dipole Y            :          0.0000000            0.0000000            0.0000000
 Dipole Z            :          0.0000000           -0.0000000           -0.0000000
 Magnitude           :                                                    0.0000000
    Molecular point group: d2h

    Geometry (in Angstrom), charge = 0, multiplicity = 1:

       Center              X                  Y                   Z               Mass
    ------------   -----------------  -----------------  -----------------  -----------------
         N            0.000000000000     0.000000000000    -0.567935500000    14.003074004430
         N            0.000000000000     0.000000000000     0.567935500000    14.003074004430

  Charge       = 0
  Multiplicity = 1
  Basis Set: CC-PVTZ
    Blend: CC-PVTZ
  Basis Set: (CC-PVTZ AUX)
    Blend: CC-PVTZ-JKFIT

    Orbital Energies [Eh]
    ---------------------

    Alpha Occupied:

       1Ag   -14.432284     1B1u  -14.430987     2Ag    -1.106596
       2B1u   -0.566172     1B2u   -0.457719     1B3u   -0.457719
       3Ag    -0.432464

    Alpha Virtual:

       1B2g   -0.045485     1B3g   -0.045485     3B1u    0.286966
       2B3u    0.393857     2B2u    0.393857     4Ag     0.414466
       5Ag     0.484259     2B2g    0.527139     2B3g    0.527139
       4B1u    0.640521     1B1g    0.836736     6Ag     0.836736
       5B1u    0.849904     3B3u    1.070731     3B2u    1.070731
       1Au     1.251384     6B1u    1.251384     3B2g    1.674861
       3B3g    1.674861     7Ag     1.681862     7B1u    1.844489
       4B2u    2.737733     4B3u    2.737733     8Ag     2.892343
       4B2g    3.046088     4B3g    3.046088     8B1u    3.389971
       2B1g    3.451936     9Ag     3.451936     5B2u    3.564924
       5B3u    3.564924     6B3u    3.619409     6B2u    3.619409
      10Ag     3.912732     5B2g    4.048442     5B3g    4.048442
       3B1g    4.343168    11Ag     4.343172     2Au     4.470599
       9B1u    4.470603     6B3g    4.510444     6B2g    4.510444
      10B1u    4.526852     3Au     4.835070    11B1u    4.835071
       7B2u    4.940428     7B3u    4.940428    12Ag     5.171812
      12B1u    5.569348    13Ag     6.223000     7B3g    6.245813
       7B2g    6.245813    13B1u   14.632304

    Beta Occupied:

       1Ag   -14.432284     1B1u  -14.430987     2Ag    -1.106596
       2B1u   -0.566172     1B2u   -0.457719     1B3u   -0.457719
       3Ag    -0.432464

    Beta Virtual:

       1B2g   -0.045485     1B3g   -0.045485     3B1u    0.286966
       2B3u    0.393857     2B2u    0.393857     4Ag     0.414466
       5Ag     0.484259     2B2g    0.527139     2B3g    0.527139
       4B1u    0.640521     1B1g    0.836736     6Ag     0.836736
       5B1u    0.849904     3B3u    1.070731     3B2u    1.070731
       1Au     1.251384     6B1u    1.251384     3B2g    1.674861
       3B3g    1.674861     7Ag     1.681862     7B1u    1.844489
       4B2u    2.737733     4B3u    2.737733     8Ag     2.892343
       4B2g    3.046088     4B3g    3.046088     8B1u    3.389971
       2B1g    3.451936     9Ag     3.451936     5B2u    3.564924
       5B3u    3.564924     6B3u    3.619409     6B2u    3.619409
      10Ag     3.912732     5B2g    4.048442     5B3g    4.048442
       3B1g    4.343168    11Ag     4.343172     2Au     4.470599
       9B1u    4.470603     6B3g    4.510444     6B2g    4.510444
      10B1u    4.526852     3Au     4.835070    11B1u    4.835071
       7B2u    4.940428     7B3u    4.940428    12Ag     5.171812
      12B1u    5.569348    13Ag     6.223000     7B3g    6.245813
       7B2g    6.245813    13B1u   14.632304

    Final Occupation by Irrep:
             Ag   B1g   B2g   B3g    Au   B1u   B2u   B3u
    DOCC [     3,    0,    0,    0,    0,    2,    1,    1 ]
    SOCC [     0,    0,    0,    0,    0,    0,    0,    0 ]
    NA   [     3,    0,    0,    0,    0,    2,    1,    1 ]
    NB   [     3,    0,    0,    0,    0,    2,    1,    1 ]

  @DF-UKS Final Energy:  -109.56335003859898

   => Energetics <=

    Nuclear Repulsion Energy =             22.8280177263351192
    One-Electron Energy =                -193.0684126394064037
    Two-Electron Energy =                  71.7207319015501810
    DFT Exchange-Correlation Energy =     -11.0436870270778975
    Empirical Dispersion Energy =           0.0000000000000000
    VV10 Nonlocal Energy =                  0.0000000000000000
    Total Energy =                       -109.5633500385989834

  UHF NO Occupations:
  HONO-2 :    1B1u 2.0000000
  HONO-1 :    3 Ag 2.0000000
  HONO-0 :    2B1u 2.0000000
  LUNO+0 :    4 Ag 0.0000000
  LUNO+1 :    5 Ag 0.0000000
  LUNO+2 :    6 Ag 0.0000000
  LUNO+3 :    3B1u 0.0000000

Computation Completed

Properties will be evaluated at   0.000000,   0.000000,   0.000000 [a0]

Properties computed using the B3LYP density matrix

 Multipole Moments:

 ------------------------------------------------------------------------------------
     Multipole            Electronic (a.u.)      Nuclear  (a.u.)        Total (a.u.)
 ------------------------------------------------------------------------------------

 L = 1.  Multiply by 2.5417464519 to convert [e a0] to [Debye]
 Dipole X            :          0.0000000            0.0000000            0.0000000
 Dipole Y            :          0.0000000            0.0000000            0.0000000
 Dipole Z            :          0.0000000           -0.0000000           -0.0000000
 Magnitude           :                                                    0.0000000

 L = 2.  Multiply by 1.3450342976 to convert [e a0^2] to [Debye ang]
 Quadrupole XX       :         -7.6263601            0.0000000           -7.6263601
 Quadrupole XY       :          0.0000000            0.0000000            0.0000000
 Quadrupole XZ       :          0.0000000            0.0000000            0.0000000
 Quadrupole YY       :         -7.6263601            0.0000000           -7.6263601
 Quadrupole YZ       :          0.0000000            0.0000000            0.0000000
 Quadrupole ZZ       :        -24.8658884           16.1258941           -8.7399943
 Traceless XX        :          5.7465094           -5.3752980            0.3712114
 Traceless YY        :          5.7465094           -5.3752980            0.3712114
 Traceless ZZ        :        -11.4930189           10.7505960           -0.7424228

 ------------------------------------------------------------------------------------
  ==> Computing MBIS Charges <==

  Electron Count from Grid (Expected Number): 14.00000 (14.00000)
  Difference:  0.00000

  MBIS Charges: (a.u.)
   Center  Symbol  Z      Pop.       Charge
      1       N    7    7.000000   -0.000000
      2       N    7    7.000000   -0.000000

  MBIS Dipoles: [e a0]
   Center  Symbol  Z        X           Y           Z
      1       N    7    0.000000   -0.000000    0.055695
      2       N    7   -0.000000   -0.000000   -0.055695

  MBIS Quadrupoles: [e a0^2]
   Center  Symbol  Z      XX        XY        XZ        YY        YZ        ZZ
      1       N    7   -3.8132    0.0000   -0.0000   -3.8132   -0.0000   -4.2504
      2       N    7   -3.8132    0.0000    0.0000   -3.8132    0.0000   -4.2504

  MBIS Octupoles: [e a0^3]
   Center  Symbol  Z      XXX       XXY       XXZ       XYY       XYZ       XZZ       YYY       YYZ       YZZ       ZZZ
      1       N    7   -0.0000   -0.0000    0.0196   -0.0000    0.0000    0.0000   -0.0000    0.0196   -0.0000    0.1192
      2       N    7   -0.0000   -0.0000   -0.0196   -0.0000   -0.0000    0.0000   -0.0000   -0.0196   -0.0000   -0.1192

  MBIS Radial Moments:
   Center  Symbol  Z      [a0^2]      [a0^3]      [a0^4]
      1       N    7   11.876808   24.579268   60.681464
      2       N    7   11.876808   24.579268   60.681464

  MBIS Valence Widths: [a0]
   Center  Symbol  Z     Width
      1       N    7    0.432691
      2       N    7    0.432691

*** tstop() called on Mac.lan at Sun Aug 10 17:06:29 2025
Module time:
	user time   =      13.71 seconds =       0.23 minutes
	system time =       1.85 seconds =       0.03 minutes
	total time  =          1 seconds =       0.02 minutes
Total time:
	user time   =      25.82 seconds =       0.43 minutes
	system time =       4.05 seconds =       0.07 minutes
	total time  =          2 seconds =       0.03 minutes

    Psi4 stopped on: Sunday, 10 August 2025 05:06PM
    Psi4 wall time for execution: 0:00:02.85

*** Psi4 exiting successfully. Buy a developer a beer!
