                               Psi4 1.9.1 release

  ==> Input File <==

--------------------------------------------------------------------------
molecule {
0 2
C           0.000000           0.000000           0.000000
H           0.000000           0.000000           1.375959
}

set {
basis              cc-pvtz
reference          uks
maxiter            500
DAMPING_PERCENTAGE 1
E_CONVERGENCE      1.0E-8
D_CONVERGENCE      1.0E-8
DIIS_MAX_VECS      400
MBIS_MAXITER       8000
guess              read
}

E, wfn = energy('b3lyp', restart_file='last_wfn', return_wfn=True)
properties('b3lyp','MBIS_CHARGES', wfn=wfn)
wfn.to_file('last_wfn')
--------------------------------------------------------------------------

    Molecular point group: c2v
  Charge       = 0
  Multiplicity = 2
  Basis Set: CC-PVTZ
    Blend: CC-PVTZ
  Basis Set: (CC-PVTZ AUX)
    Blend: CC-PVTZ-JKFIT
  @DF-UKS Final Energy:   -38.47603175807910
    Total Energy =                        -38.4760317580791025
 Dipole X            :          0.0000000            0.0000000            0.0000000
 Dipole Y            :          0.0000000            0.0000000            0.0000000
 Dipole Z            :         -0.8164782            1.1899787            0.3735005
 Magnitude           :                                                    0.3735005
    Molecular point group: c2v

    Geometry (in Angstrom), charge = 0, multiplicity = 2:

       Center              X                  Y                   Z               Mass
    ------------   -----------------  -----------------  -----------------  -----------------
         C            0.000000000000     0.000000000000    -0.106607055375    12.000000000000
         H            0.000000000000     0.000000000000     1.269351944625     1.007825032230

  Charge       = 0
  Multiplicity = 2
  Basis Set: CC-PVTZ
    Blend: CC-PVTZ
  Basis Set: (CC-PVTZ AUX)
    Blend: CC-PVTZ-JKFIT

    Orbital Energies [Eh]
    ---------------------

    Alpha Occupied:

       1A1   -10.308563     2A1    -0.610374     3A1    -0.319846
       1B1    -0.264946

    Alpha Virtual:

       1B2    -0.151626     4A1     0.016736     5A1     0.266241
       2B1     0.287454     2B2     0.307044     6A1     0.319403
       7A1     0.449449     3B1     0.545655     3B2     0.548001
       1A2     0.653463     8A1     0.659194     9A1     0.892486
       4B1     0.961013     4B2     0.961985    10A1     1.207950
       5B1     1.902071     5B2     1.928684    11A1     2.118084
      12A1     2.406536     6B1     2.552320     6B2     2.556464
       2A2     2.560731    13A1     2.564924     7B1     2.636254
       7B2     2.638806    14A1     2.695227     3A2     2.885552
      15A1     2.898382     8B1     3.004329     8B2     3.018875
      16A1     3.097230     4A2     3.354691    17A1     3.355792
       9B2     3.691294     9B1     3.693387    18A1     3.766595
      10B2     4.149543    10B1     4.150047    19A1     4.301806
      20A1     6.160582

    Beta Occupied:

       1A1   -10.293302     2A1    -0.562357     3A1    -0.304784

    Beta Virtual:

       1B2    -0.135364     1B1    -0.088548     4A1     0.025178
       5A1     0.269078     2B2     0.314454     6A1     0.327320
       2B1     0.343389     7A1     0.469952     3B2     0.548401
       3B1     0.567509     8A1     0.696604     1A2     0.696999
       9A1     0.905546     4B2     0.963201     4B1     0.982915
      10A1     1.212583     5B2     1.939554     5B1     1.983182
      11A1     2.130608    12A1     2.408987     6B2     2.559862
       6B1     2.590741    13A1     2.592612     2A2     2.593190
       7B2     2.695057     7B1     2.695709    14A1     2.714812
      15A1     2.963871     3A2     2.963919     8B2     3.024778
       8B1     3.067600    16A1     3.119862     4A2     3.359527
      17A1     3.359865     9B2     3.685282     9B1     3.692034
      18A1     3.779523    10B2     4.148074    10B1     4.165167
      19A1     4.302173    20A1     6.175415

    Final Occupation by Irrep:
             A1    A2    B1    B2
    DOCC [     3,    0,    0,    0 ]
    SOCC [     0,    0,    1,    0 ]
    NA   [     3,    0,    1,    0 ]
    NB   [     3,    0,    0,    0 ]

  @DF-UKS Final Energy:   -38.47603175758710

   => Energetics <=

    Nuclear Repulsion Energy =              2.3075275237270878
    One-Electron Energy =                 -55.6597229490356398
    Two-Electron Energy =                  19.3659294213543731
    DFT Exchange-Correlation Energy =      -4.4897657536329252
    Empirical Dispersion Energy =           0.0000000000000000
    VV10 Nonlocal Energy =                  0.0000000000000000
    Total Energy =                        -38.4760317575871014

  UHF NO Occupations:
  HONO-2 :    2 A1 1.9995948
  HONO-1 :    3 A1 1.9985943
  HONO-0 :    1 B1 1.0000000
  LUNO+0 :    4 A1 0.0014057
  LUNO+1 :    5 A1 0.0004052
  LUNO+2 :    6 A1 0.0000007
  LUNO+3 :    2 B1 0.0000000

Computation Completed

Properties will be evaluated at   0.000000,   0.000000,   0.000000 [a0]

Properties computed using the B3LYP density matrix

 Multipole Moments:

 ------------------------------------------------------------------------------------
     Multipole            Electronic (a.u.)      Nuclear  (a.u.)        Total (a.u.)
 ------------------------------------------------------------------------------------

 L = 1.  Multiply by 2.5417464519 to convert [e a0] to [Debye]
 Dipole X            :          0.0000000            0.0000000            0.0000000
 Dipole Y            :          0.0000000            0.0000000            0.0000000
 Dipole Z            :         -0.8164782            1.1899787            0.3735005
 Magnitude           :                                                    0.3735005

 L = 2.  Multiply by 1.3450342976 to convert [e a0^2] to [Debye ang]
 Quadrupole XX       :         -5.8692818            0.0000000           -5.8692818
 Quadrupole XY       :          0.0000000            0.0000000            0.0000000
 Quadrupole XZ       :          0.0000000            0.0000000            0.0000000
 Quadrupole YY       :         -4.3965492            0.0000000           -4.3965492
 Quadrupole YZ       :          0.0000000            0.0000000            0.0000000
 Quadrupole ZZ       :        -11.6911156            5.9974061           -5.6937095
 Traceless XX        :          1.4497004           -1.9991354           -0.5494350
 Traceless YY        :          2.9224330           -1.9991354            0.9232976
 Traceless ZZ        :         -4.3721334            3.9982707           -0.3738627

 ------------------------------------------------------------------------------------
  ==> Computing MBIS Charges <==

  Electron Count from Grid (Expected Number):  7.00000 ( 7.00000)
  Difference:  0.00000

  MBIS Charges: (a.u.)
   Center  Symbol  Z      Pop.       Charge
      1       C    6    6.023746   -0.023746
      2       H    1    0.976254    0.023746

  MBIS Dipoles: [e a0]
   Center  Symbol  Z        X           Y           Z
      1       C    6   -0.000000    0.000000    0.242855
      2       H    1    0.000000    0.000000    0.068901

  MBIS Quadrupoles: [e a0^2]
   Center  Symbol  Z      XX        XY        XZ        YY        YZ        ZZ
      1       C    6   -5.0801    0.0000    0.0000   -3.6839    0.0000   -5.2900
      2       H    1   -0.7891    0.0000    0.0000   -0.7127    0.0000   -0.7721

  MBIS Octupoles: [e a0^3]
   Center  Symbol  Z      XXX       XXY       XXZ       XYY       XYZ       XZZ       YYY       YYZ       YZZ       ZZZ
      1       C    6    0.0000   -0.0000    0.2930    0.0000   -0.0000    0.0000   -0.0000    0.2614   -0.0000    0.4785
      2       H    1    0.0000    0.0000    0.0048    0.0000   -0.0000    0.0000    0.0000   -0.0620    0.0000    0.0026

  MBIS Radial Moments:
   Center  Symbol  Z      [a0^2]      [a0^3]      [a0^4]
      1       C    6   14.054001   34.983118   104.116771
      2       H    1    2.273909    4.979102   13.104691

  MBIS Valence Widths: [a0]
   Center  Symbol  Z     Width
      1       C    6    0.523986
      2       H    1    0.442851

*** tstop() called on Mac.lan at Sun Aug 10 17:09:25 2025
Module time:
	user time   =       2.93 seconds =       0.05 minutes
	system time =       1.57 seconds =       0.03 minutes
	total time  =          0 seconds =       0.00 minutes
Total time:
	user time   =      13.03 seconds =       0.22 minutes
	system time =       4.14 seconds =       0.07 minutes
	total time  =          1 seconds =       0.02 minutes

    Psi4 stopped on: Sunday, 10 August 2025 05:09PM
    Psi4 wall time for execution: 0:00:01.68

*** Psi4 exiting successfully. Buy a developer a beer!
