                               Psi4 1.9.1 release

  ==> Input File <==

--------------------------------------------------------------------------
molecule {
0 2
O           0.000000           0.000000           0.000000
N           0.000000           0.000000           1.592640
}

set {
basis              cc-pvtz
reference          uks
maxiter            500
DAMPING_PERCENTAGE 1
E_CONVERGENCE      1.0E-8
D_CONVERGENCE      1.0E-8
DIIS_MAX_VECS      400
MBIS_MAXITER       8000
guess              read
}

E, wfn = energy('b3lyp', restart_file='last_wfn', return_wfn=True)
properties('b3lyp','MBIS_CHARGES', wfn=wfn)
wfn.to_file('last_wfn')
--------------------------------------------------------------------------

    Molecular point group: c2v
  Charge       = 0
  Multiplicity = 2
  Basis Set: CC-PVTZ
    Blend: CC-PVTZ
  Basis Set: (CC-PVTZ AUX)
    Blend: CC-PVTZ-JKFIT
  @DF-UKS Final Energy:  -129.79882485354335
    Total Energy =                       -129.7988248535433513
 Dipole X            :          0.0000000            0.0000000            0.0000000
 Dipole Y            :          0.0000000            0.0000000            0.0000000
 Dipole Z            :          0.2583301           -0.0060387            0.2522914
 Magnitude           :                                                    0.2522914
    Molecular point group: c2v

    Geometry (in Angstrom), charge = 0, multiplicity = 2:

       Center              X                  Y                   Z               Mass
    ------------   -----------------  -----------------  -----------------  -----------------
         O            0.000000000000     0.000000000000    -0.743445037664    15.994914619570
         N            0.000000000000     0.000000000000     0.849194962336    14.003074004430

  Charge       = 0
  Multiplicity = 2
  Basis Set: CC-PVTZ
    Blend: CC-PVTZ
  Basis Set: (CC-PVTZ AUX)
    Blend: CC-PVTZ-JKFIT

    Orbital Energies [Eh]
    ---------------------

    Alpha Occupied:

       1A1   -19.249153     2A1   -14.509560     3A1    -1.000456
       4A1    -0.773605     5A1    -0.435733     1B1    -0.430170
       1B2    -0.402945     2B1    -0.314777

    Alpha Virtual:

       2B2    -0.189905     6A1    -0.040741     7A1     0.401578
       3B1     0.415658     3B2     0.416234     8A1     0.494814
       9A1     0.583991     4B1     0.601895     4B2     0.622259
       1A2     0.944098    10A1     0.944420     5B2     0.967272
       5B1     0.970768    11A1     1.083355    12A1     1.409152
       2A2     1.472119    13A1     1.476193     6B1     1.749636
       6B2     1.754578    14A1     1.996209     7B1     2.714889
       7B2     2.716468    15A1     2.978422     8B1     3.480886
       8B2     3.505846    16A1     3.522021     3A2     3.767387
      17A1     3.767730     9B1     3.769274     9B2     3.769291
      10B1     3.887987    10B2     3.891275    18A1     4.188554
       4A2     4.279245    19A1     4.279815    11B2     4.430961
      11B1     4.431492    20A1     4.928002    12B1     5.092770
      12B2     5.094299     5A2     5.124452    21A1     5.127934
      22A1     5.132280    13B1     5.427510    13B2     5.433713
      23A1     5.914852     6A2     6.160031    24A1     6.170450
      14B1     6.422312    14B2     6.444419    25A1     7.163296
      26A1     7.934977

    Beta Occupied:

       1A1   -19.267339     2A1   -14.472617     3A1    -1.024940
       4A1    -0.695049     1B2    -0.440582     5A1    -0.427993
       1B1    -0.377314

    Beta Virtual:

       2B2    -0.154917     2B1    -0.137158     6A1    -0.021011
       7A1     0.414732     3B2     0.461455     3B1     0.473193
       8A1     0.519271     4B2     0.581185     9A1     0.589221
       4B1     0.608812     5B2     0.988829     5B1     1.004598
       1A2     1.015842    10A1     1.015900    11A1     1.072205
      12A1     1.427437     2A2     1.445450    13A1     1.451959
       6B2     1.734352     6B1     1.763760    14A1     1.993285
       7B2     2.805219     7B1     2.818165    15A1     2.994529
       8B2     3.444321     8B1     3.493505    16A1     3.551690
       3A2     3.841123    17A1     3.841181     9B2     3.875924
       9B1     3.876028    10B2     3.908075    10B1     3.932240
      18A1     4.207403     4A2     4.422304    19A1     4.422329
      11B2     4.503681    11B1     4.517848    20A1     4.943178
      12B2     5.049393    12B1     5.049526     5A2     5.094505
      21A1     5.096759    22A1     5.199509    13B2     5.389884
      13B1     5.430381    23A1     5.897228     6A2     6.104099
      24A1     6.105225    14B2     6.369183    14B1     6.420888
      25A1     7.152440    26A1     7.903672

    Final Occupation by Irrep:
             A1    A2    B1    B2
    DOCC [     5,    0,    1,    1 ]
    SOCC [     0,    0,    1,    0 ]
    NA   [     5,    0,    2,    1 ]
    NB   [     5,    0,    1,    1 ]

  @DF-UKS Final Energy:  -129.79882485184152

   => Energetics <=

    Nuclear Repulsion Energy =             18.6067936241209537
    One-Electron Energy =                -214.1670373226056654
    Two-Electron Energy =                  78.0231076759504134
    DFT Exchange-Correlation Energy =     -12.2616888293072144
    Empirical Dispersion Energy =           0.0000000000000000
    VV10 Nonlocal Energy =                  0.0000000000000000
    Total Energy =                       -129.7988248518415162

  UHF NO Occupations:
  HONO-2 :    5 A1 1.9920314
  HONO-1 :    1 B2 1.6541394
  HONO-0 :    2 B1 1.0000000
  LUNO+0 :    2 B2 0.3458606
  LUNO+1 :    6 A1 0.0079686
  LUNO+2 :    7 A1 0.0007568
  LUNO+3 :    3 B1 0.0004937

Computation Completed

Properties will be evaluated at   0.000000,   0.000000,   0.000000 [a0]

Properties computed using the B3LYP density matrix

 Multipole Moments:

 ------------------------------------------------------------------------------------
     Multipole            Electronic (a.u.)      Nuclear  (a.u.)        Total (a.u.)
 ------------------------------------------------------------------------------------

 L = 1.  Multiply by 2.5417464519 to convert [e a0] to [Debye]
 Dipole X            :          0.0000000            0.0000000            0.0000000
 Dipole Y            :          0.0000000            0.0000000            0.0000000
 Dipole Z            :          0.2583306           -0.0060387            0.2522918
 Magnitude           :                                                    0.2522918

 L = 2.  Multiply by 1.3450342976 to convert [e a0^2] to [Debye ang]
 Quadrupole XX       :         -8.2762004            0.0000000           -8.2762004
 Quadrupole XY       :          0.0000000            0.0000000            0.0000000
 Quadrupole XZ       :          0.0000000            0.0000000            0.0000000
 Quadrupole YY       :         -7.4920489            0.0000000           -7.4920489
 Quadrupole YZ       :          0.0000000            0.0000000            0.0000000
 Quadrupole ZZ       :        -41.8274091           33.8165869           -8.0108222
 Traceless XX        :         10.9223524          -11.2721956           -0.3498432
 Traceless YY        :         11.7065039          -11.2721956            0.4343083
 Traceless ZZ        :        -22.6288563           22.5443912           -0.0844651

 ------------------------------------------------------------------------------------
  ==> Computing MBIS Charges <==

  Electron Count from Grid (Expected Number): 15.00000 (15.00000)
  Difference: -0.00000

  MBIS Charges: (a.u.)
   Center  Symbol  Z      Pop.       Charge
      1       O    8    8.117143   -0.117143
      2       N    7    6.882856    0.117144

  MBIS Dipoles: [e a0]
   Center  Symbol  Z        X           Y           Z
      1       O    8    0.000000   -0.000000   -0.020226
      2       N    7   -0.000000    0.000000   -0.080045

  MBIS Quadrupoles: [e a0^2]
   Center  Symbol  Z      XX        XY        XZ        YY        YZ        ZZ
      1       O    8   -4.2140    0.0000    0.0000   -3.6623   -0.0000   -3.8702
      2       N    7   -4.0622   -0.0000   -0.0000   -3.8298   -0.0000   -4.0110

  MBIS Octupoles: [e a0^3]
   Center  Symbol  Z      XXX       XXY       XXZ       XYY       XYZ       XZZ       YYY       YYZ       YZZ       ZZZ
      1       O    8    0.0000   -0.0000    0.0286   -0.0000   -0.0000   -0.0000   -0.0000   -0.0710    0.0000   -0.2887
      2       N    7   -0.0000   -0.0000    0.0081   -0.0000    0.0000   -0.0000   -0.0000    0.0082   -0.0000    0.2578

  MBIS Radial Moments:
   Center  Symbol  Z      [a0^2]      [a0^3]      [a0^4]
      1       O    8   11.746450   22.329028   50.810255
      2       N    7   11.903004   25.005471   62.666565

  MBIS Valence Widths: [a0]
   Center  Symbol  Z     Width
      1       O    8    0.390250
      2       N    7    0.438570

*** tstop() called on Mac.lan at Sun Aug 10 17:21:31 2025
Module time:
	user time   =       4.00 seconds =       0.07 minutes
	system time =       2.09 seconds =       0.03 minutes
	total time  =          1 seconds =       0.02 minutes
Total time:
	user time   =      20.67 seconds =       0.34 minutes
	system time =       4.15 seconds =       0.07 minutes
	total time  =          3 seconds =       0.05 minutes

    Psi4 stopped on: Sunday, 10 August 2025 05:21PM
    Psi4 wall time for execution: 0:00:02.40

*** Psi4 exiting successfully. Buy a developer a beer!
