                               Psi4 1.9.1 release

  ==> Input File <==

--------------------------------------------------------------------------
molecule {
0 3
O           0.000000           0.000000           0.000000
O           0.000000           0.000000           1.321488
}

set {
basis              cc-pvtz
reference          uks
maxiter            500
DAMPING_PERCENTAGE 1
E_CONVERGENCE      1.0E-8
D_CONVERGENCE      1.0E-8
DIIS_MAX_VECS      400
MBIS_MAXITER       8000
guess              read
}

E, wfn = energy('b3lyp', restart_file='last_wfn', return_wfn=True)
properties('b3lyp','MBIS_CHARGES', wfn=wfn)
wfn.to_file('last_wfn')
--------------------------------------------------------------------------

    Molecular point group: d2h
  Charge       = 0
  Multiplicity = 3
  Basis Set: CC-PVTZ
    Blend: CC-PVTZ
  Basis Set: (CC-PVTZ AUX)
    Blend: CC-PVTZ-JKFIT
  @DF-UKS Final Energy:  -150.36611595396340
    Total Energy =                       -150.3661159539634014
 Dipole X            :          0.0000000            0.0000000            0.0000000
 Dipole Y            :          0.0000000            0.0000000            0.0000000
 Dipole Z            :          0.0000000            0.0000000            0.0000000
 Magnitude           :                                                    0.0000000
    Molecular point group: d2h

    Geometry (in Angstrom), charge = 0, multiplicity = 3:

       Center              X                  Y                   Z               Mass
    ------------   -----------------  -----------------  -----------------  -----------------
         O            0.000000000000     0.000000000000    -0.660744000000    15.994914619570
         O            0.000000000000     0.000000000000     0.660744000000    15.994914619570

  Charge       = 0
  Multiplicity = 3
  Basis Set: CC-PVTZ
    Blend: CC-PVTZ
  Basis Set: (CC-PVTZ AUX)
    Blend: CC-PVTZ-JKFIT

    Orbital Energies [Eh]
    ---------------------

    Alpha Occupied:

       1Ag   -19.302563     1B1u  -19.302461     2Ag    -1.231091
       2B1u   -0.876605     3Ag    -0.537893     1B2u   -0.536020
       1B3u   -0.536020     1B3g   -0.345818     1B2g   -0.345818

    Alpha Virtual:

       3B1u    0.058397     4B1u    0.472314     2B3u    0.502330
       2B2u    0.502330     4Ag     0.562225     2B2g    0.608086
       2B3g    0.608086     5Ag     0.668170     5B1u    1.187950
       3B2u    1.231539     3B3u    1.231539     6Ag     1.233060
       1B1g    1.233061     6B1u    1.555538     1Au     1.555539
       7Ag     1.935107     3B2g    2.073112     3B3g    2.073112
       7B1u    2.157456     4B3u    3.367753     4B2u    3.367753
       8Ag     3.472799     4B2g    3.607952     4B3g    3.607952
       8B1u    4.529692     5B3u    4.604471     5B2u    4.604471
       9Ag     4.646605     2B1g    4.646606    10Ag     4.740475
       6B2u    4.936285     6B3u    4.936285     5B2g    5.073429
       5B3g    5.073429     9B1u    5.443640     2Au     5.443641
      11Ag     5.984821     3B1g    5.984828     6B2g    6.032355
       6B3g    6.032355    10B1u    6.173061     3Au     6.173068
       7B2u    6.224184     7B3u    6.224184    11B1u    6.248996
      12B1u    6.348937    12Ag     6.687845     7B2g    6.918561
       7B3g    6.918561    13Ag     7.517083    13B1u   10.088765

    Beta Occupied:

       1Ag   -19.272227     1B1u  -19.272017     2Ag    -1.169640
       2B1u   -0.786941     3Ag    -0.502932     1B2u   -0.431033
       1B3u   -0.431033

    Beta Virtual:

       1B3g   -0.152861     1B2g   -0.152861     3B1u    0.098869
       4B1u    0.486369     2B3u    0.540714     2B2u    0.540714
       4Ag     0.573390     2B2g    0.648243     2B3g    0.648243
       5Ag     0.688839     5B1u    1.221085     3B2u    1.258139
       3B3u    1.258139     6Ag     1.277218     1B1g    1.277218
       1Au     1.615418     6B1u    1.615418     7Ag     1.967099
       3B2g    2.108361     3B3g    2.108361     7B1u    2.176493
       4B3u    3.441531     4B2u    3.441531     8Ag     3.492528
       4B2g    3.685276     4B3g    3.685276     8B1u    4.563793
       5B3u    4.638861     5B2u    4.638861     9Ag     4.690556
       2B1g    4.690556    10Ag     4.775070     6B2u    5.008648
       6B3u    5.008648     5B2g    5.147928     5B3g    5.147928
       9B1u    5.497645     2Au     5.497647     6B2g    6.087241
       6B3g    6.087241    11Ag     6.094599     3B1g    6.094606
      10B1u    6.278234     3Au     6.278241     7B3u    6.283876
       7B2u    6.283876    11B1u    6.294170    12B1u    6.377519
      12Ag     6.716301     7B2g    6.959646     7B3g    6.959646
      13Ag     7.573300    13B1u   10.129672

    Final Occupation by Irrep:
             Ag   B1g   B2g   B3g    Au   B1u   B2u   B3u
    DOCC [     3,    0,    0,    0,    0,    2,    1,    1 ]
    SOCC [     0,    0,    1,    1,    0,    0,    0,    0 ]
    NA   [     3,    0,    1,    1,    0,    2,    1,    1 ]
    NB   [     3,    0,    0,    0,    0,    2,    1,    1 ]

  @DF-UKS Final Energy:  -150.36611595362393

   => Energetics <=

    Nuclear Repulsion Energy =             25.6281869247999232
    One-Electron Energy =                -257.2630547359708544
    Two-Electron Energy =                  94.9724525744512249
    DFT Exchange-Correlation Energy =     -13.7037007169042404
    Empirical Dispersion Energy =           0.0000000000000000
    VV10 Nonlocal Energy =                  0.0000000000000000
    Total Energy =                       -150.3661159536239609

  UHF NO Occupations:
  HONO-2 :    1B3u 1.9981919
  HONO-1 :    1B2g 1.0000000
  HONO-0 :    1B3g 1.0000000
  LUNO+0 :    2B3u 0.0018081
  LUNO+1 :    2B2u 0.0018081
  LUNO+2 :    3B1u 0.0007458
  LUNO+3 :    4 Ag 0.0003013

Computation Completed

Properties will be evaluated at   0.000000,   0.000000,   0.000000 [a0]

Properties computed using the B3LYP density matrix

 Multipole Moments:

 ------------------------------------------------------------------------------------
     Multipole            Electronic (a.u.)      Nuclear  (a.u.)        Total (a.u.)
 ------------------------------------------------------------------------------------

 L = 1.  Multiply by 2.5417464519 to convert [e a0] to [Debye]
 Dipole X            :          0.0000000            0.0000000            0.0000000
 Dipole Y            :          0.0000000            0.0000000            0.0000000
 Dipole Z            :          0.0000000            0.0000000            0.0000000
 Magnitude           :                                                    0.0000000

 L = 2.  Multiply by 1.3450342976 to convert [e a0^2] to [Debye ang]
 Quadrupole XX       :         -7.5154262            0.0000000           -7.5154262
 Quadrupole XY       :          0.0000000            0.0000000            0.0000000
 Quadrupole XZ       :          0.0000000            0.0000000            0.0000000
 Quadrupole YY       :         -7.5154262            0.0000000           -7.5154262
 Quadrupole YZ       :          0.0000000            0.0000000            0.0000000
 Quadrupole ZZ       :        -32.5304024           24.9450382           -7.5853642
 Traceless XX        :          8.3383254           -8.3150127            0.0233127
 Traceless YY        :          8.3383254           -8.3150127            0.0233127
 Traceless ZZ        :        -16.6766508           16.6300255           -0.0466253

 ------------------------------------------------------------------------------------
  ==> Computing MBIS Charges <==

  Electron Count from Grid (Expected Number): 16.00000 (16.00000)
  Difference: -0.00000

  MBIS Charges: (a.u.)
   Center  Symbol  Z      Pop.       Charge
      1       O    8    8.000000    0.000000
      2       O    8    8.000000    0.000000

  MBIS Dipoles: [e a0]
   Center  Symbol  Z        X           Y           Z
      1       O    8   -0.000000    0.000000    0.055136
      2       O    8   -0.000000    0.000000   -0.055136

  MBIS Quadrupoles: [e a0^2]
   Center  Symbol  Z      XX        XY        XZ        YY        YZ        ZZ
      1       O    8   -3.7577   -0.0000   -0.0000   -3.7577    0.0000   -3.6550
      2       O    8   -3.7577   -0.0000    0.0000   -3.7577   -0.0000   -3.6550

  MBIS Octupoles: [e a0^3]
   Center  Symbol  Z      XXX       XXY       XXZ       XYY       XYZ       XZZ       YYY       YYZ       YZZ       ZZZ
      1       O    8   -0.0000    0.0000    0.0390   -0.0000   -0.0000   -0.0000    0.0000    0.0390    0.0000   -0.2264
      2       O    8   -0.0000   -0.0000   -0.0390   -0.0000    0.0000   -0.0000    0.0000   -0.0390   -0.0000    0.2264

  MBIS Radial Moments:
   Center  Symbol  Z      [a0^2]      [a0^3]      [a0^4]
      1       O    8   11.170421   20.892713   46.878161
      2       O    8   11.170421   20.892713   46.878161

  MBIS Valence Widths: [a0]
   Center  Symbol  Z     Width
      1       O    8    0.383719
      2       O    8    0.383719

*** tstop() called on Mac.lan at Sun Aug 10 17:01:43 2025
Module time:
	user time   =       4.38 seconds =       0.07 minutes
	system time =       2.14 seconds =       0.04 minutes
	total time  =          0 seconds =       0.00 minutes
Total time:
	user time   =      15.72 seconds =       0.26 minutes
	system time =       4.49 seconds =       0.07 minutes
	total time  =          2 seconds =       0.03 minutes

    Psi4 stopped on: Sunday, 10 August 2025 05:01PM
    Psi4 wall time for execution: 0:00:01.99

*** Psi4 exiting successfully. Buy a developer a beer!
