                               Psi4 1.9.1 release

  ==> Input File <==

--------------------------------------------------------------------------
molecule {
0 1
O           0.000000           0.000000           0.000000
C           0.000000           0.000000           1.316883
}

set {
basis              cc-pvtz
reference          uks
maxiter            500
DAMPING_PERCENTAGE 1
E_CONVERGENCE      1.0E-8
D_CONVERGENCE      1.0E-8
DIIS_MAX_VECS      400
MBIS_MAXITER       8000
guess              read
}

E, wfn = energy('b3lyp', restart_file='last_wfn', return_wfn=True)
properties('b3lyp','MBIS_CHARGES', wfn=wfn)
wfn.to_file('last_wfn')
--------------------------------------------------------------------------

    Molecular point group: c2v
  Charge       = 0
  Multiplicity = 1
  Basis Set: CC-PVTZ
    Blend: CC-PVTZ
  Basis Set: (CC-PVTZ AUX)
    Blend: CC-PVTZ-JKFIT
  @DF-UKS Final Energy:  -113.30309135769868
    Total Energy =                       -113.3030913576986762
 Dipole X            :          0.0000000            0.0000000            0.0000000
 Dipole Y            :          0.0000000            0.0000000            0.0000000
 Dipole Z            :          0.2191279           -0.0027123            0.2164156
 Magnitude           :                                                    0.2164156
    Molecular point group: c2v

    Geometry (in Angstrom), charge = 0, multiplicity = 1:

       Center              X                  Y                   Z               Mass
    ------------   -----------------  -----------------  -----------------  -----------------
         O            0.000000000000     0.000000000000    -0.564480950013    15.994914619570
         C            0.000000000000     0.000000000000     0.752402049987    12.000000000000

  Charge       = 0
  Multiplicity = 1
  Basis Set: CC-PVTZ
    Blend: CC-PVTZ
  Basis Set: (CC-PVTZ AUX)
    Blend: CC-PVTZ-JKFIT

    Orbital Energies [Eh]
    ---------------------

    Alpha Occupied:

       1A1   -19.241828     2A1   -10.354185     3A1    -1.073335
       4A1    -0.582938     1B1    -0.425501     1B2    -0.425501
       5A1    -0.395380

    Alpha Virtual:

       2B1    -0.095879     2B2    -0.095879     6A1     0.142446
       3B2     0.287740     3B1     0.287740     7A1     0.303084
       8A1     0.382646     9A1     0.538918     4B1     0.616872
       4B2     0.616872     1A2     0.632875    10A1     0.632875
       5B1     0.789502     5B2     0.789502    11A1     1.075837
      12A1     1.186102    13A1     1.469575     2A2     1.469576
       6B2     1.747249     6B1     1.747249     7B2     1.993800
       7B1     1.993800    14A1     2.011542    15A1     2.186304
       8B2     2.623224     8B1     2.623224     3A2     2.713958
      16A1     2.713959     9B2     2.891771     9B1     2.891771
       4A2     2.900732    17A1     2.900733    18A1     3.083886
      10B1     3.134524    10B2     3.134524    19A1     3.175507
      11B1     3.852357    11B2     3.852357    20A1     3.907670
      12B1     5.070351    12B2     5.070351    21A1     5.268464
       5A2     5.268466    22A1     5.513947    13B1     5.764039
      13B2     5.764039    23A1     6.189312     6A2     6.189322
      24A1     6.301575    14B2     6.655998    14B1     6.655998
      25A1     7.085869    26A1     9.701556

    Beta Occupied:

       1A1   -19.241828     2A1   -10.354185     3A1    -1.073335
       4A1    -0.582938     1B1    -0.425501     1B2    -0.425501
       5A1    -0.395380

    Beta Virtual:

       2B1    -0.095879     2B2    -0.095879     6A1     0.142446
       3B2     0.287740     3B1     0.287740     7A1     0.303084
       8A1     0.382646     9A1     0.538918     4B1     0.616872
       4B2     0.616872     1A2     0.632875    10A1     0.632875
       5B1     0.789502     5B2     0.789502    11A1     1.075837
      12A1     1.186102    13A1     1.469575     2A2     1.469576
       6B2     1.747249     6B1     1.747249     7B2     1.993800
       7B1     1.993800    14A1     2.011542    15A1     2.186304
       8B2     2.623224     8B1     2.623224     3A2     2.713958
      16A1     2.713959     9B2     2.891771     9B1     2.891771
       4A2     2.900732    17A1     2.900733    18A1     3.083886
      10B1     3.134524    10B2     3.134524    19A1     3.175507
      11B1     3.852357    11B2     3.852357    20A1     3.907670
      12B1     5.070351    12B2     5.070351    21A1     5.268464
       5A2     5.268466    22A1     5.513947    13B1     5.764039
      13B2     5.764039    23A1     6.189312     6A2     6.189322
      24A1     6.301575    14B2     6.655998    14B1     6.655998
      25A1     7.085869    26A1     9.701556

    Final Occupation by Irrep:
             A1    A2    B1    B2
    DOCC [     5,    0,    1,    1 ]
    SOCC [     0,    0,    0,    0 ]
    NA   [     5,    0,    1,    1 ]
    NB   [     5,    0,    1,    1 ]

  @DF-UKS Final Energy:  -113.30309135191418

   => Energetics <=

    Nuclear Repulsion Energy =             19.2883544796006952
    One-Electron Energy =                -192.1933762213661225
    Two-Electron Energy =                  70.7073017573472100
    DFT Exchange-Correlation Energy =     -11.1053713674959447
    Empirical Dispersion Energy =           0.0000000000000000
    VV10 Nonlocal Energy =                  0.0000000000000000
    Total Energy =                       -113.3030913519141762

  UHF NO Occupations:
  HONO-2 :    4 A1 2.0000000
  HONO-1 :    1 B1 2.0000000
  HONO-0 :    5 A1 2.0000000
  LUNO+0 :    6 A1 0.0000000
  LUNO+1 :    7 A1 0.0000000
  LUNO+2 :    8 A1 0.0000000
  LUNO+3 :    9 A1 0.0000000

Computation Completed

Properties will be evaluated at   0.000000,   0.000000,   0.000000 [a0]

Properties computed using the B3LYP density matrix

 Multipole Moments:

 ------------------------------------------------------------------------------------
     Multipole            Electronic (a.u.)      Nuclear  (a.u.)        Total (a.u.)
 ------------------------------------------------------------------------------------

 L = 1.  Multiply by 2.5417464519 to convert [e a0] to [Debye]
 Dipole X            :          0.0000000            0.0000000            0.0000000
 Dipole Y            :          0.0000000            0.0000000            0.0000000
 Dipole Z            :          0.2191279           -0.0027123            0.2164156
 Magnitude           :                                                    0.2164156

 L = 2.  Multiply by 1.3450342976 to convert [e a0^2] to [Debye ang]
 Quadrupole XX       :         -7.8625065            0.0000000           -7.8625065
 Quadrupole XY       :          0.0000000            0.0000000            0.0000000
 Quadrupole XZ       :          0.0000000            0.0000000            0.0000000
 Quadrupole YY       :         -7.8625065            0.0000000           -7.8625065
 Quadrupole YZ       :          0.0000000            0.0000000            0.0000000
 Quadrupole ZZ       :        -30.2160202           21.2327052           -8.9833150
 Traceless XX        :          7.4511712           -7.0775684            0.3736028
 Traceless YY        :          7.4511712           -7.0775684            0.3736028
 Traceless ZZ        :        -14.9023424           14.1551368           -0.7472057

 ------------------------------------------------------------------------------------
  ==> Computing MBIS Charges <==

  Electron Count from Grid (Expected Number): 14.00000 (14.00000)
  Difference: -0.00000

  MBIS Charges: (a.u.)
   Center  Symbol  Z      Pop.       Charge
      1       O    8    8.224255   -0.224255
      2       C    6    5.775745    0.224255

  MBIS Dipoles: [e a0]
   Center  Symbol  Z        X           Y           Z
      1       O    8   -0.000000   -0.000000   -0.090811
      2       C    6    0.000000    0.000000   -0.250844

  MBIS Quadrupoles: [e a0^2]
   Center  Symbol  Z      XX        XY        XZ        YY        YZ        ZZ
      1       O    8   -3.8996    0.0000   -0.0000   -3.8996    0.0000   -4.0077
      2       C    6   -3.9629   -0.0000    0.0000   -3.9629    0.0000   -4.6542

  MBIS Octupoles: [e a0^3]
   Center  Symbol  Z      XXX       XXY       XXZ       XYY       XYZ       XZZ       YYY       YYZ       YZZ       ZZZ
      1       O    8   -0.0000   -0.0000   -0.0528   -0.0000   -0.0000   -0.0000   -0.0000   -0.0528    0.0000   -0.2419
      2       C    6    0.0000   -0.0000   -0.1128    0.0000    0.0000    0.0000    0.0000   -0.1128    0.0000   -0.4693

  MBIS Radial Moments:
   Center  Symbol  Z      [a0^2]      [a0^3]      [a0^4]
      1       O    8   11.806971   22.202045   49.978252
      2       C    6   12.579963   30.207622   85.984362

  MBIS Valence Widths: [a0]
   Center  Symbol  Z     Width
      1       O    8    0.388356
      2       C    6    0.510737

*** tstop() called on Mac.lan at Sun Aug 10 17:18:02 2025
Module time:
	user time   =      10.87 seconds =       0.18 minutes
	system time =       3.09 seconds =       0.05 minutes
	total time  =          2 seconds =       0.03 minutes
Total time:
	user time   =      53.14 seconds =       0.89 minutes
	system time =       7.83 seconds =       0.13 minutes
	total time  =          7 seconds =       0.12 minutes

    Psi4 stopped on: Sunday, 10 August 2025 05:18PM
    Psi4 wall time for execution: 0:00:06.33

*** Psi4 exiting successfully. Buy a developer a beer!
