                               Psi4 1.9.1 release

  ==> Input File <==

--------------------------------------------------------------------------
molecule {
0 2
O           0.000000           0.000000           0.000000
H           0.000000           0.000000           0.638466
}

set {
basis              cc-pvtz
reference          uks
maxiter            500
DAMPING_PERCENTAGE 1
E_CONVERGENCE      1.0E-8
D_CONVERGENCE      1.0E-8
DIIS_MAX_VECS      400
MBIS_MAXITER       8000
guess              read
}

E, wfn = energy('b3lyp', restart_file='last_wfn', return_wfn=True)
properties('b3lyp','MBIS_CHARGES', wfn=wfn)
wfn.to_file('last_wfn')
--------------------------------------------------------------------------

    Molecular point group: c2v
  Charge       = 0
  Multiplicity = 2
  Basis Set: CC-PVTZ
    Blend: CC-PVTZ
  Basis Set: (CC-PVTZ AUX)
    Blend: CC-PVTZ-JKFIT
  @DF-UKS Final Energy:   -75.52020487644825
    Total Energy =                        -75.5202048764482470
 Dipole X            :          0.0000000            0.0000000            0.0000000
 Dipole Y            :          0.0000000            0.0000000            0.0000000
 Dipole Z            :          0.0260104            0.5628824            0.5888927
 Magnitude           :                                                    0.5888927
    Molecular point group: c2v

    Geometry (in Angstrom), charge = 0, multiplicity = 2:

       Center              X                  Y                   Z               Mass
    ------------   -----------------  -----------------  -----------------  -----------------
         O            0.000000000000     0.000000000000    -0.037844607999    15.994914619570
         H            0.000000000000     0.000000000000     0.600621392001     1.007825032230

  Charge       = 0
  Multiplicity = 2
  Basis Set: CC-PVTZ
    Blend: CC-PVTZ
  Basis Set: (CC-PVTZ AUX)
    Blend: CC-PVTZ-JKFIT

    Orbital Energies [Eh]
    ---------------------

    Alpha Occupied:

       1A1   -19.169840     2A1    -1.162503     3A1    -0.527607
       1B1    -0.439163     1B2    -0.365667

    Alpha Virtual:

       4A1     0.064177     5A1     0.470889     2B1     0.510014
       2B2     0.542108     6A1     0.614042     3B1     0.755356
       3B2     0.777979     7A1     0.797884     8A1     1.408234
       1A2     1.409001     9A1     1.689001     4B1     1.818609
       4B2     1.855244    10A1     2.012374    11A1     2.783065
       5B1     3.314204     5B2     3.345408     2A2     3.360960
      12A1     3.361039     6B1     3.618582     6B2     3.672483
      13A1     3.940004     7B1     4.481674     7B2     4.515811
      14A1     4.634307     8B1     5.050127     8B2     5.050398
      15A1     5.869491     3A2     5.886496    16A1     5.918819
       4A2     6.100928    17A1     6.104229     9B1     6.105892
       9B2     6.157292    18A1     7.705705    19A1     7.900823
      10B1     8.245754    10B2     8.295244    20A1    14.676477

    Beta Occupied:

       1A1   -19.144916     2A1    -1.099127     3A1    -0.494226
       1B2    -0.340011

    Beta Virtual:

       1B1    -0.190274     4A1     0.068746     5A1     0.477395
       2B2     0.550782     2B1     0.571904     6A1     0.623318
       3B2     0.780703     3B1     0.786683     7A1     0.819422
       1A2     1.461869     8A1     1.467544     9A1     1.708991
       4B2     1.860636     4B1     1.864580    10A1     2.037017
      11A1     2.792055     5B2     3.349987     5B1     3.359485
       2A2     3.379641    12A1     3.380898     6B2     3.688306
       6B1     3.709262    13A1     3.956368     7B2     4.520043
       7B1     4.524201    14A1     4.665334     8B2     5.120606
       8B1     5.123501     3A2     5.927637    15A1     5.931709
      16A1     5.942452     9B2     6.165767     9B1     6.171922
       4A2     6.194618    17A1     6.209993    18A1     7.726390
      19A1     7.917091    10B2     8.304891    10B1     8.316090
      20A1    14.704462

    Final Occupation by Irrep:
             A1    A2    B1    B2
    DOCC [     3,    0,    0,    1 ]
    SOCC [     0,    0,    1,    0 ]
    NA   [     3,    0,    1,    1 ]
    NB   [     3,    0,    0,    1 ]

  @DF-UKS Final Energy:   -75.52020487640573

   => Energetics <=

    Nuclear Repulsion Energy =              6.6306078716172827
    One-Electron Energy =                -116.2642848253042303
    Two-Electron Energy =                  41.4854181795481622
    DFT Exchange-Correlation Energy =      -7.3719461022669464
    Empirical Dispersion Energy =           0.0000000000000000
    VV10 Nonlocal Energy =                  0.0000000000000000
    Total Energy =                        -75.5202048764057281

  UHF NO Occupations:
  HONO-2 :    1 B2 1.9998597
  HONO-1 :    3 A1 1.9993867
  HONO-0 :    1 B1 1.0000000
  LUNO+0 :    4 A1 0.0006133
  LUNO+1 :    2 B2 0.0001403
  LUNO+2 :    5 A1 0.0000856
  LUNO+3 :    6 A1 0.0000006

Computation Completed

Properties will be evaluated at   0.000000,   0.000000,   0.000000 [a0]

Properties computed using the B3LYP density matrix

 Multipole Moments:

 ------------------------------------------------------------------------------------
     Multipole            Electronic (a.u.)      Nuclear  (a.u.)        Total (a.u.)
 ------------------------------------------------------------------------------------

 L = 1.  Multiply by 2.5417464519 to convert [e a0] to [Debye]
 Dipole X            :          0.0000000            0.0000000            0.0000000
 Dipole Y            :          0.0000000            0.0000000            0.0000000
 Dipole Z            :          0.0260104            0.5628824            0.5888927
 Magnitude           :                                                    0.5888927

 L = 2.  Multiply by 1.3450342976 to convert [e a0^2] to [Debye ang]
 Quadrupole XX       :         -3.7450652            0.0000000           -3.7450652
 Quadrupole XY       :          0.0000000            0.0000000            0.0000000
 Quadrupole XZ       :          0.0000000            0.0000000            0.0000000
 Quadrupole YY       :         -4.6135933            0.0000000           -4.6135933
 Quadrupole YZ       :          0.0000000            0.0000000            0.0000000
 Quadrupole ZZ       :         -4.9544980            1.3291638           -3.6253342
 Traceless XX        :          0.6926536           -0.4430546            0.2495990
 Traceless YY        :         -0.1758745           -0.4430546           -0.6189291
 Traceless ZZ        :         -0.5167791            0.8861092            0.3693301

 ------------------------------------------------------------------------------------
  ==> Computing MBIS Charges <==

  Electron Count from Grid (Expected Number):  9.00000 ( 9.00000)
  Difference:  0.00000

  MBIS Charges: (a.u.)
   Center  Symbol  Z      Pop.       Charge
      1       O    8    8.440835   -0.440835
      2       H    1    0.559165    0.440835

  MBIS Dipoles: [e a0]
   Center  Symbol  Z        X           Y           Z
      1       O    8    0.000000   -0.000000    0.038599
      2       H    1   -0.000000   -0.000000    0.018414

  MBIS Quadrupoles: [e a0^2]
   Center  Symbol  Z      XX        XY        XZ        YY        YZ        ZZ
      1       O    8   -3.6143    0.0000    0.0000   -4.4658   -0.0000   -4.0903
      2       H    1   -0.1308   -0.0000    0.0000   -0.1478   -0.0000   -0.1370

  MBIS Octupoles: [e a0^3]
   Center  Symbol  Z      XXX       XXY       XXZ       XYY       XYZ       XZZ       YYY       YYZ       YZZ       ZZZ
      1       O    8   -0.0000    0.0000    0.1312   -0.0000   -0.0000    0.0000   -0.0000    0.0768   -0.0000    0.1159
      2       H    1    0.0000    0.0000    0.0016    0.0000   -0.0000    0.0000   -0.0000    0.0040   -0.0000    0.0052

  MBIS Radial Moments:
   Center  Symbol  Z      [a0^2]      [a0^3]      [a0^4]
      1       O    8   12.170407   23.016742   51.990209
      2       H    1    0.415516    0.513233    0.762989

  MBIS Valence Widths: [a0]
   Center  Symbol  Z     Width
      1       O    8    0.386745
      2       H    1    0.250473

*** tstop() called on Mac.lan at Sun Aug 10 17:11:03 2025
Module time:
	user time   =       4.36 seconds =       0.07 minutes
	system time =       2.64 seconds =       0.04 minutes
	total time  =          1 seconds =       0.02 minutes
Total time:
	user time   =      17.05 seconds =       0.28 minutes
	system time =       5.23 seconds =       0.09 minutes
	total time  =          3 seconds =       0.05 minutes

    Psi4 stopped on: Sunday, 10 August 2025 05:11PM
    Psi4 wall time for execution: 0:00:02.29

*** Psi4 exiting successfully. Buy a developer a beer!
