                               Psi4 1.9.1 release

  ==> Input File <==

--------------------------------------------------------------------------
molecule {
0 2
C           0.000000           0.000000           0.000000
H           0.000000           0.000000           1.520435
}

set {
basis              cc-pvtz
reference          uks
maxiter            500
DAMPING_PERCENTAGE 1
E_CONVERGENCE      1.0E-8
D_CONVERGENCE      1.0E-8
DIIS_MAX_VECS      400
MBIS_MAXITER       8000
guess              read
}

E, wfn = energy('b3lyp', restart_file='last_wfn', return_wfn=True)
properties('b3lyp','MBIS_CHARGES', wfn=wfn)
wfn.to_file('last_wfn')
--------------------------------------------------------------------------

    Molecular point group: c2v
  Charge       = 0
  Multiplicity = 2
  Basis Set: CC-PVTZ
    Blend: CC-PVTZ
  Basis Set: (CC-PVTZ AUX)
    Blend: CC-PVTZ-JKFIT
  @DF-UKS Final Energy:   -38.45639835262318
    Total Energy =                        -38.4563983526231894
 Dipole X            :          0.0000000            0.0000000            0.0000000
 Dipole Y            :          0.0000000            0.0000000            0.0000000
 Dipole Z            :         -1.0682014            1.3149267            0.2467253
 Magnitude           :                                                    0.2467253
    Molecular point group: c2v

    Geometry (in Angstrom), charge = 0, multiplicity = 2:

       Center              X                  Y                   Z               Mass
    ------------   -----------------  -----------------  -----------------  -----------------
         C            0.000000000000     0.000000000000    -0.117800819821    12.000000000000
         H            0.000000000000     0.000000000000     1.402634180179     1.007825032230

  Charge       = 0
  Multiplicity = 2
  Basis Set: CC-PVTZ
    Blend: CC-PVTZ
  Basis Set: (CC-PVTZ AUX)
    Blend: CC-PVTZ-JKFIT

    Orbital Energies [Eh]
    ---------------------

    Alpha Occupied:

       1A1   -10.321810     2A1    -0.599145     3A1    -0.314193
       1B1    -0.269509

    Alpha Virtual:

       1B2    -0.155241     4A1    -0.013496     5A1     0.258684
       2B1     0.284346     2B2     0.303685     6A1     0.313598
       7A1     0.448160     3B1     0.539223     3B2     0.541271
       1A2     0.651619     8A1     0.657342     9A1     0.840186
       4B1     0.921291     4B2     0.922690    10A1     1.189580
       5B1     1.890259     5B2     1.917130    11A1     2.086742
      12A1     2.440701     6B1     2.538746     6B2     2.541968
       2A2     2.592650    13A1     2.596622    14A1     2.602217
       7B1     2.631945     7B2     2.634549     3A2     2.875377
      15A1     2.887988     8B1     2.963659     8B2     2.980575
      16A1     3.185740     4A2     3.285307    17A1     3.286151
      18A1     3.599396     9B2     3.627046     9B1     3.628777
      10B2     3.942254    10B1     3.943143    19A1     4.132399
      20A1     5.452931

    Beta Occupied:

       1A1   -10.306104     2A1    -0.547395     3A1    -0.302196

    Beta Virtual:

       1B2    -0.138717     1B1    -0.091282     4A1    -0.004096
       5A1     0.258361     2B2     0.310999     6A1     0.322216
       2B1     0.339903     7A1     0.470022     3B2     0.541056
       3B1     0.558346     8A1     0.694582     1A2     0.695196
       9A1     0.852102     4B2     0.923493     4B1     0.943095
      10A1     1.193601     5B2     1.927888     5B1     1.971506
      11A1     2.098784    12A1     2.437259     6B2     2.545775
       6B1     2.576399    13A1     2.610990     2A2     2.628453
      14A1     2.639259     7B2     2.690812     7B1     2.691454
      15A1     2.952383     3A2     2.953033     8B2     2.988044
       8B1     3.031825    16A1     3.209562     4A2     3.285647
      17A1     3.286317    18A1     3.617779     9B2     3.619180
       9B1     3.625919    10B2     3.937802    10B1     3.950922
      19A1     4.128855    20A1     5.464366

    Final Occupation by Irrep:
             A1    A2    B1    B2
    DOCC [     3,    0,    0,    0 ]
    SOCC [     0,    0,    1,    0 ]
    NA   [     3,    0,    1,    0 ]
    NB   [     3,    0,    0,    0 ]

  @DF-UKS Final Energy:   -38.45639835188622

   => Energetics <=

    Nuclear Repulsion Energy =              2.0882597835619410
    One-Electron Energy =                 -55.2025408273857749
    Two-Electron Energy =                  19.1234333308152564
    DFT Exchange-Correlation Energy =      -4.4655506388776436
    Empirical Dispersion Energy =           0.0000000000000000
    VV10 Nonlocal Energy =                  0.0000000000000000
    Total Energy =                        -38.4563983518862216

  UHF NO Occupations:
  HONO-2 :    2 A1 1.9992168
  HONO-1 :    3 A1 1.9983427
  HONO-0 :    1 B1 1.0000000
  LUNO+0 :    4 A1 0.0016573
  LUNO+1 :    5 A1 0.0007832
  LUNO+2 :    6 A1 0.0000007
  LUNO+3 :    7 A1 0.0000000

Computation Completed

Properties will be evaluated at   0.000000,   0.000000,   0.000000 [a0]

Properties computed using the B3LYP density matrix

 Multipole Moments:

 ------------------------------------------------------------------------------------
     Multipole            Electronic (a.u.)      Nuclear  (a.u.)        Total (a.u.)
 ------------------------------------------------------------------------------------

 L = 1.  Multiply by 2.5417464519 to convert [e a0] to [Debye]
 Dipole X            :          0.0000000            0.0000000            0.0000000
 Dipole Y            :          0.0000000            0.0000000            0.0000000
 Dipole Z            :         -1.0682014            1.3149267            0.2467253
 Magnitude           :                                                    0.2467253

 L = 2.  Multiply by 1.3450342976 to convert [e a0^2] to [Debye ang]
 Quadrupole XX       :         -5.9543876            0.0000000           -5.9543876
 Quadrupole XY       :          0.0000000            0.0000000            0.0000000
 Quadrupole XZ       :          0.0000000            0.0000000            0.0000000
 Quadrupole YY       :         -4.4993829            0.0000000           -4.4993829
 Quadrupole YZ       :          0.0000000            0.0000000            0.0000000
 Quadrupole ZZ       :        -13.1247283            7.3229857           -5.8017426
 Traceless XX        :          1.9051120           -2.4409952           -0.5358832
 Traceless YY        :          3.3601167           -2.4409952            0.9191214
 Traceless ZZ        :         -5.2652287            4.8819904           -0.3832382

 ------------------------------------------------------------------------------------
  ==> Computing MBIS Charges <==

  Electron Count from Grid (Expected Number):  7.00000 ( 7.00000)
  Difference: -0.00000

  MBIS Charges: (a.u.)
   Center  Symbol  Z      Pop.       Charge
      1       C    6    5.990529    0.009471
      2       H    1    1.009471   -0.009471

  MBIS Dipoles: [e a0]
   Center  Symbol  Z        X           Y           Z
      1       C    6   -0.000000    0.000000    0.188786
      2       H    1   -0.000000    0.000000    0.085151

  MBIS Quadrupoles: [e a0^2]
   Center  Symbol  Z      XX        XY        XZ        YY        YZ        ZZ
      1       C    6   -5.0435   -0.0000   -0.0000   -3.6620    0.0000   -5.2220
      2       H    1   -0.9108   -0.0000   -0.0000   -0.8374    0.0000   -0.8810

  MBIS Octupoles: [e a0^3]
   Center  Symbol  Z      XXX       XXY       XXZ       XYY       XYZ       XZZ       YYY       YYZ       YZZ       ZZZ
      1       C    6    0.0000    0.0000    0.2068    0.0000    0.0000    0.0000   -0.0000    0.1539   -0.0000    0.2546
      2       H    1   -0.0000    0.0000    0.0236   -0.0000   -0.0000   -0.0000    0.0000   -0.0561    0.0000    0.0609

  MBIS Radial Moments:
   Center  Symbol  Z      [a0^2]      [a0^3]      [a0^4]
      1       C    6   13.927526   34.590799   102.609245
      2       H    1    2.629268    6.064041   16.735468

  MBIS Valence Widths: [a0]
   Center  Symbol  Z     Width
      1       C    6    0.523912
      2       H    1    0.468487

*** tstop() called on Mac.lan at Sun Aug 10 17:09:40 2025
Module time:
	user time   =       3.00 seconds =       0.05 minutes
	system time =       1.60 seconds =       0.03 minutes
	total time  =          1 seconds =       0.02 minutes
Total time:
	user time   =      12.63 seconds =       0.21 minutes
	system time =       3.56 seconds =       0.06 minutes
	total time  =          2 seconds =       0.03 minutes

    Psi4 stopped on: Sunday, 10 August 2025 05:09PM
    Psi4 wall time for execution: 0:00:01.58

*** Psi4 exiting successfully. Buy a developer a beer!
