                               Psi4 1.9.1 release

  ==> Input File <==

--------------------------------------------------------------------------
molecule {
0 3
O           0.000000           0.000000           0.000000
O           0.000000           0.000000           1.343636
}

set {
basis              cc-pvtz
reference          uks
maxiter            500
DAMPING_PERCENTAGE 1
E_CONVERGENCE      1.0E-8
D_CONVERGENCE      1.0E-8
DIIS_MAX_VECS      400
MBIS_MAXITER       8000
guess              read
}

E, wfn = energy('b3lyp', restart_file='last_wfn', return_wfn=True)
properties('b3lyp','MBIS_CHARGES', wfn=wfn)
wfn.to_file('last_wfn')
--------------------------------------------------------------------------

    Molecular point group: d2h
  Charge       = 0
  Multiplicity = 3
  Basis Set: CC-PVTZ
    Blend: CC-PVTZ
  Basis Set: (CC-PVTZ AUX)
    Blend: CC-PVTZ-JKFIT
  @DF-UKS Final Energy:  -150.36084337046881
    Total Energy =                       -150.3608433704688139
 Dipole X            :          0.0000000            0.0000000            0.0000000
 Dipole Y            :          0.0000000            0.0000000            0.0000000
 Dipole Z            :          0.0000000            0.0000000            0.0000000
 Magnitude           :                                                    0.0000000
    Molecular point group: d2h

    Geometry (in Angstrom), charge = 0, multiplicity = 3:

       Center              X                  Y                   Z               Mass
    ------------   -----------------  -----------------  -----------------  -----------------
         O            0.000000000000     0.000000000000    -0.671818000000    15.994914619570
         O            0.000000000000     0.000000000000     0.671818000000    15.994914619570

  Charge       = 0
  Multiplicity = 3
  Basis Set: CC-PVTZ
    Blend: CC-PVTZ
  Basis Set: (CC-PVTZ AUX)
    Blend: CC-PVTZ-JKFIT

    Orbital Energies [Eh]
    ---------------------

    Alpha Occupied:

       1Ag   -19.304487     1B1u  -19.304396     2Ag    -1.218108
       2B1u   -0.882738     3Ag    -0.534732     1B3u   -0.530763
       1B2u   -0.530763     1B3g   -0.351051     1B2g   -0.351051

    Alpha Virtual:

       3B1u    0.037614     4B1u    0.471245     2B2u    0.502822
       2B3u    0.502822     4Ag     0.564477     2B3g    0.607495
       2B2g    0.607495     5Ag     0.670518     5B1u    1.182503
       3B2u    1.223617     3B3u    1.223617     6Ag     1.239145
       1B1g    1.239145     6B1u    1.548034     1Au     1.548035
       7Ag     1.903290     3B3g    2.056357     3B2g    2.056357
       7B1u    2.167940     4B2u    3.367073     4B3u    3.367073
       8Ag     3.455048     4B3g    3.599050     4B2g    3.599050
       8B1u    4.487074     5B2u    4.604147     5B3u    4.604147
       9Ag     4.667185     2B1g    4.667186    10Ag     4.729702
       6B3u    4.944607     6B2u    4.944607     5B2g    5.066481
       5B3g    5.066481     9B1u    5.408159     2Au     5.408160
       6B2g    5.979750     6B3g    5.979750    11Ag     5.984134
       3B1g    5.984137    10B1u    6.166394     3Au     6.166396
       7B3u    6.201926     7B2u    6.201926    11B1u    6.235299
      12B1u    6.426032    12Ag     6.652944     7B2g    6.882603
       7B3g    6.882603    13Ag     7.499578    13B1u    9.794219

    Beta Occupied:

       1Ag   -19.274191     1B1u  -19.273998     2Ag    -1.155790
       2B1u   -0.792999     3Ag    -0.500408     1B2u   -0.425271
       1B3u   -0.425271

    Beta Virtual:

       1B3g   -0.158604     1B2g   -0.158604     3B1u    0.077918
       4B1u    0.484920     2B2u    0.541724     2B3u    0.541724
       4Ag     0.576004     2B3g    0.647417     2B2g    0.647417
       5Ag     0.690978     5B1u    1.215503     3B2u    1.249674
       3B3u    1.249674     6Ag     1.283660     1B1g    1.283660
       6B1u    1.607642     1Au     1.607642     7Ag     1.935207
       3B3g    2.091475     3B2g    2.091475     7B1u    2.187174
       4B2u    3.440612     4B3u    3.440612     8Ag     3.474438
       4B3g    3.676361     4B2g    3.676361     8B1u    4.521000
       5B2u    4.638827     5B3u    4.638827     9Ag     4.711658
       2B1g    4.711658    10Ag     4.764550     6B3u    5.017116
       6B2u    5.017116     5B2g    5.140881     5B3g    5.140881
       9B1u    5.461635     2Au     5.461637     6B2g    6.033139
       6B3g    6.033139    11Ag     6.093821     3B1g    6.093825
       7B3u    6.261960     7B2u    6.261960    10B1u    6.270998
      11B1u    6.271944     3Au     6.271947    12B1u    6.464191
      12Ag     6.680325     7B2g    6.925155     7B3g    6.925155
      13Ag     7.557173    13B1u    9.834693

    Final Occupation by Irrep:
             Ag   B1g   B2g   B3g    Au   B1u   B2u   B3u
    DOCC [     3,    0,    0,    0,    0,    2,    1,    1 ]
    SOCC [     0,    0,    1,    1,    0,    0,    0,    0 ]
    NA   [     3,    0,    1,    1,    0,    2,    1,    1 ]
    NB   [     3,    0,    0,    0,    0,    2,    1,    1 ]

  @DF-UKS Final Energy:  -150.36084337041675

   => Energetics <=

    Nuclear Repulsion Energy =             25.2057413487581456
    One-Electron Energy =                -256.4393980882389315
    Two-Electron Energy =                  94.5648795389044778
    DFT Exchange-Correlation Energy =     -13.6920661698404551
    Empirical Dispersion Energy =           0.0000000000000000
    VV10 Nonlocal Energy =                  0.0000000000000000
    Total Energy =                       -150.3608433704167453

  UHF NO Occupations:
  HONO-2 :    1B2u 1.9981402
  HONO-1 :    1B3g 1.0000000
  HONO-0 :    1B2g 1.0000000
  LUNO+0 :    2B3u 0.0018598
  LUNO+1 :    2B2u 0.0018598
  LUNO+2 :    3B1u 0.0007352
  LUNO+3 :    4 Ag 0.0003037

Computation Completed

Properties will be evaluated at   0.000000,   0.000000,   0.000000 [a0]

Properties computed using the B3LYP density matrix

 Multipole Moments:

 ------------------------------------------------------------------------------------
     Multipole            Electronic (a.u.)      Nuclear  (a.u.)        Total (a.u.)
 ------------------------------------------------------------------------------------

 L = 1.  Multiply by 2.5417464519 to convert [e a0] to [Debye]
 Dipole X            :          0.0000000            0.0000000            0.0000000
 Dipole Y            :          0.0000000            0.0000000            0.0000000
 Dipole Z            :          0.0000000            0.0000000            0.0000000
 Magnitude           :                                                    0.0000000

 L = 2.  Multiply by 1.3450342976 to convert [e a0^2] to [Debye ang]
 Quadrupole XX       :         -7.5399344            0.0000000           -7.5399344
 Quadrupole XY       :          0.0000000            0.0000000            0.0000000
 Quadrupole XZ       :          0.0000000            0.0000000            0.0000000
 Quadrupole YY       :         -7.5399344            0.0000000           -7.5399344
 Quadrupole YZ       :          0.0000000            0.0000000            0.0000000
 Quadrupole ZZ       :        -33.3374757           25.7881976           -7.5492781
 Traceless XX        :          8.5991804           -8.5960659            0.0031146
 Traceless YY        :          8.5991804           -8.5960659            0.0031146
 Traceless ZZ        :        -17.1983608           17.1921317           -0.0062291

 ------------------------------------------------------------------------------------
  ==> Computing MBIS Charges <==

  Electron Count from Grid (Expected Number): 16.00000 (16.00000)
  Difference: -0.00000

  MBIS Charges: (a.u.)
   Center  Symbol  Z      Pop.       Charge
      1       O    8    8.000000    0.000000
      2       O    8    8.000000    0.000000

  MBIS Dipoles: [e a0]
   Center  Symbol  Z        X           Y           Z
      1       O    8   -0.000000    0.000000    0.047112
      2       O    8   -0.000000   -0.000000   -0.047112

  MBIS Quadrupoles: [e a0^2]
   Center  Symbol  Z      XX        XY        XZ        YY        YZ        ZZ
      1       O    8   -3.7700   -0.0000   -0.0000   -3.7700    0.0000   -3.6550
      2       O    8   -3.7700   -0.0000    0.0000   -3.7700   -0.0000   -3.6550

  MBIS Octupoles: [e a0^3]
   Center  Symbol  Z      XXX       XXY       XXZ       XYY       XYZ       XZZ       YYY       YYZ       YZZ       ZZZ
      1       O    8   -0.0000   -0.0000    0.0274   -0.0000   -0.0000   -0.0000    0.0000    0.0274   -0.0000   -0.2436
      2       O    8   -0.0000   -0.0000   -0.0274   -0.0000    0.0000   -0.0000   -0.0000   -0.0274    0.0000    0.2436

  MBIS Radial Moments:
   Center  Symbol  Z      [a0^2]      [a0^3]      [a0^4]
      1       O    8   11.194951   20.965144   47.096737
      2       O    8   11.194951   20.965144   47.096737

  MBIS Valence Widths: [a0]
   Center  Symbol  Z     Width
      1       O    8    0.384157
      2       O    8    0.384157

*** tstop() called on Mac.lan at Sun Aug 10 17:01:46 2025
Module time:
	user time   =       3.99 seconds =       0.07 minutes
	system time =       1.69 seconds =       0.03 minutes
	total time  =          1 seconds =       0.02 minutes
Total time:
	user time   =      16.11 seconds =       0.27 minutes
	system time =       3.80 seconds =       0.06 minutes
	total time  =          2 seconds =       0.03 minutes

    Psi4 stopped on: Sunday, 10 August 2025 05:01PM
    Psi4 wall time for execution: 0:00:01.95

*** Psi4 exiting successfully. Buy a developer a beer!
