                               Psi4 1.9.1 release

  ==> Input File <==

--------------------------------------------------------------------------
molecule {
0 3
O           0.000000           0.000000           0.000000
O           0.000000           0.000000           1.210749
}

set {
basis              cc-pvtz
reference          uks
maxiter            500
DAMPING_PERCENTAGE 1
E_CONVERGENCE      1.0E-8
D_CONVERGENCE      1.0E-8
DIIS_MAX_VECS      400
MBIS_MAXITER       8000
guess              read
}

E, wfn = energy('b3lyp', restart_file='last_wfn', return_wfn=True)
properties('b3lyp','MBIS_CHARGES', wfn=wfn)
wfn.to_file('last_wfn')
--------------------------------------------------------------------------

    Molecular point group: d2h
  Charge       = 0
  Multiplicity = 3
  Basis Set: CC-PVTZ
    Blend: CC-PVTZ
  Basis Set: (CC-PVTZ AUX)
    Blend: CC-PVTZ-JKFIT
  @DF-UKS Final Energy:  -150.38091288408503
    Total Energy =                       -150.3809128840850349
 Dipole X            :          0.0000000            0.0000000            0.0000000
 Dipole Y            :          0.0000000            0.0000000            0.0000000
 Dipole Z            :          0.0000000            0.0000000            0.0000000
 Magnitude           :                                                    0.0000000
    Molecular point group: d2h

    Geometry (in Angstrom), charge = 0, multiplicity = 3:

       Center              X                  Y                   Z               Mass
    ------------   -----------------  -----------------  -----------------  -----------------
         O            0.000000000000     0.000000000000    -0.605374500000    15.994914619570
         O            0.000000000000     0.000000000000     0.605374500000    15.994914619570

  Charge       = 0
  Multiplicity = 3
  Basis Set: CC-PVTZ
    Blend: CC-PVTZ
  Basis Set: (CC-PVTZ AUX)
    Blend: CC-PVTZ-JKFIT

    Orbital Energies [Eh]
    ---------------------

    Alpha Occupied:

       1Ag   -19.290926     1B1u  -19.290727     2Ag    -1.307013
       2B1u   -0.843538     1B3u   -0.567295     1B2u   -0.567295
       3Ag    -0.553681     1B3g   -0.314483     1B2g   -0.314483

    Alpha Virtual:

       3B1u    0.174926     4B1u    0.491823     2B3u    0.496734
       2B2u    0.496734     4Ag     0.549235     2B3g    0.611829
       2B2g    0.611829     5Ag     0.657757     5B1u    1.200077
       1B1g    1.202718     6Ag     1.202718     3B2u    1.282590
       3B3u    1.282590     6B1u    1.596607     1Au     1.596608
       7Ag     2.077640     7B1u    2.126434     3B2g    2.151695
       3B3g    2.151695     4B3u    3.381399     4B2u    3.381399
       8Ag     3.558887     4B2g    3.663576     4B3g    3.663576
       9Ag     4.557043     2B1g    4.557043     5B2u    4.625206
       5B3u    4.625206     8B1u    4.696031    10Ag     4.850936
       6B3u    4.882493     6B2u    4.882493     5B2g    5.119403
       5B3g    5.119403     9B1u    5.650592     2Au     5.650593
      10B1u    5.768086    11Ag     5.987824     3B1g    5.987838
      11B1u    6.207732     3Au     6.207746     6B2g    6.252017
       6B3g    6.252017     7B3u    6.357765     7B2u    6.357765
      12B1u    6.611795    12Ag     6.898490     7B2g    7.155853
       7B3g    7.155853    13Ag     7.548375    13B1u   12.028548

    Beta Occupied:

       1Ag   -19.260484     1B1u  -19.260148     2Ag    -1.250366
       2B1u   -0.754555     3Ag    -0.515135     1B2u   -0.465009
       1B3u   -0.465009

    Beta Virtual:

       1B3g   -0.119407     1B2g   -0.119407     3B1u    0.213379
       4B1u    0.510725     2B3u    0.532103     2B2u    0.532103
       4Ag     0.558641     2B3g    0.653493     2B2g    0.653493
       5Ag     0.679723     5B1u    1.233233     1B1g    1.245115
       6Ag     1.245115     3B2u    1.312365     3B3u    1.312365
       1Au     1.657974     6B1u    1.657974     7Ag     2.109021
       7B1u    2.145741     3B2g    2.187833     3B3g    2.187833
       4B3u    3.456729     4B2u    3.456729     8Ag     3.580413
       4B2g    3.740553     4B3g    3.740553     2B1g    4.598012
       9Ag     4.598012     5B2u    4.658110     5B3u    4.658110
       8B1u    4.731346    10Ag     4.883769     6B3u    4.953603
       6B2u    4.953603     5B2g    5.194374     5B3g    5.194374
       9B1u    5.708530     2Au     5.708530    10B1u    5.810490
      11Ag     6.097675     3B1g    6.097688    11B1u    6.309558
       3Au     6.309573     6B2g    6.312386     6B3g    6.312386
       7B3u    6.415089     7B2u    6.415089    12B1u    6.642645
      12Ag     6.937252     7B2g    7.191488     7B3g    7.191488
      13Ag     7.593409    13B1u   12.071665

    Final Occupation by Irrep:
             Ag   B1g   B2g   B3g    Au   B1u   B2u   B3u
    DOCC [     3,    0,    0,    0,    0,    2,    1,    1 ]
    SOCC [     0,    0,    1,    1,    0,    0,    0,    0 ]
    NA   [     3,    0,    1,    1,    0,    2,    1,    1 ]
    NB   [     3,    0,    0,    0,    0,    2,    1,    1 ]

  @DF-UKS Final Energy:  -150.38091288403422

   => Energetics <=

    Nuclear Repulsion Energy =             27.9722233781568264
    One-Electron Energy =                -261.7947897923516507
    Two-Electron Energy =                  97.2144898794663561
    DFT Exchange-Correlation Energy =     -13.7728363493057397
    Empirical Dispersion Energy =           0.0000000000000000
    VV10 Nonlocal Energy =                  0.0000000000000000
    Total Energy =                       -150.3809128840342169

  UHF NO Occupations:
  HONO-2 :    1B3u 1.9984779
  HONO-1 :    1B2g 1.0000000
  HONO-0 :    1B3g 1.0000000
  LUNO+0 :    2B3u 0.0015221
  LUNO+1 :    2B2u 0.0015221
  LUNO+2 :    3B1u 0.0007666
  LUNO+3 :    4 Ag 0.0002882

Computation Completed

Properties will be evaluated at   0.000000,   0.000000,   0.000000 [a0]

Properties computed using the B3LYP density matrix

 Multipole Moments:

 ------------------------------------------------------------------------------------
     Multipole            Electronic (a.u.)      Nuclear  (a.u.)        Total (a.u.)
 ------------------------------------------------------------------------------------

 L = 1.  Multiply by 2.5417464519 to convert [e a0] to [Debye]
 Dipole X            :          0.0000000            0.0000000            0.0000000
 Dipole Y            :          0.0000000            0.0000000            0.0000000
 Dipole Z            :          0.0000000            0.0000000            0.0000000
 Magnitude           :                                                    0.0000000

 L = 2.  Multiply by 1.3450342976 to convert [e a0^2] to [Debye ang]
 Quadrupole XX       :         -7.3775758            0.0000000           -7.3775758
 Quadrupole XY       :          0.0000000            0.0000000            0.0000000
 Quadrupole XZ       :          0.0000000            0.0000000            0.0000000
 Quadrupole YY       :         -7.3775758            0.0000000           -7.3775758
 Quadrupole YZ       :          0.0000000            0.0000000            0.0000000
 Quadrupole ZZ       :        -28.6985480           20.9394834           -7.7590645
 Traceless XX        :          7.1069907           -6.9798278            0.1271629
 Traceless YY        :          7.1069907           -6.9798278            0.1271629
 Traceless ZZ        :        -14.2139814           13.9596556           -0.2543258

 ------------------------------------------------------------------------------------
  ==> Computing MBIS Charges <==

  Electron Count from Grid (Expected Number): 16.00000 (16.00000)
  Difference:  0.00000

  MBIS Charges: (a.u.)
   Center  Symbol  Z      Pop.       Charge
      1       O    8    8.000000   -0.000000
      2       O    8    8.000000   -0.000000

  MBIS Dipoles: [e a0]
   Center  Symbol  Z        X           Y           Z
      1       O    8   -0.000000    0.000000    0.097235
      2       O    8   -0.000000   -0.000000   -0.097235

  MBIS Quadrupoles: [e a0^2]
   Center  Symbol  Z      XX        XY        XZ        YY        YZ        ZZ
      1       O    8   -3.6888   -0.0000    0.0000   -3.6888   -0.0000   -3.6571
      2       O    8   -3.6888   -0.0000   -0.0000   -3.6888    0.0000   -3.6571

  MBIS Octupoles: [e a0^3]
   Center  Symbol  Z      XXX       XXY       XXZ       XYY       XYZ       XZZ       YYY       YYZ       YZZ       ZZZ
      1       O    8   -0.0000   -0.0000    0.1026    0.0000    0.0000   -0.0000    0.0000    0.1026   -0.0000   -0.1318
      2       O    8   -0.0000   -0.0000   -0.1026    0.0000    0.0000   -0.0000   -0.0000   -0.1026   -0.0000    0.1318

  MBIS Radial Moments:
   Center  Symbol  Z      [a0^2]      [a0^3]      [a0^4]
      1       O    8   11.034636   20.501759   45.719993
      2       O    8   11.034636   20.501759   45.719993

  MBIS Valence Widths: [a0]
   Center  Symbol  Z     Width
      1       O    8    0.381238
      2       O    8    0.381238

*** tstop() called on Mac.lan at Sun Aug 10 17:00:36 2025
Module time:
	user time   =      11.99 seconds =       0.20 minutes
	system time =       2.63 seconds =       0.04 minutes
	total time  =          1 seconds =       0.02 minutes
Total time:
	user time   =      23.97 seconds =       0.40 minutes
	system time =       4.66 seconds =       0.08 minutes
	total time  =          3 seconds =       0.05 minutes

    Psi4 stopped on: Sunday, 10 August 2025 05:00PM
    Psi4 wall time for execution: 0:00:02.84

*** Psi4 exiting successfully. Buy a developer a beer!
