                               Psi4 1.9.1 release

  ==> Input File <==

--------------------------------------------------------------------------
molecule {
0 2
N           0.000000           0.000000           0.000000
C           0.000000           0.000000           1.103457
}

set {
basis              cc-pvtz
reference          uks
maxiter            500
DAMPING_PERCENTAGE 1
E_CONVERGENCE      1.0E-8
D_CONVERGENCE      1.0E-8
DIIS_MAX_VECS      400
MBIS_MAXITER       8000
guess              read
}

E, wfn = energy('b3lyp', restart_file='last_wfn', return_wfn=True)
properties('b3lyp','MBIS_CHARGES', wfn=wfn)
wfn.to_file('last_wfn')
--------------------------------------------------------------------------

    Molecular point group: c2v
  Charge       = 0
  Multiplicity = 2
  Basis Set: CC-PVTZ
    Blend: CC-PVTZ
  Basis Set: (CC-PVTZ AUX)
    Blend: CC-PVTZ-JKFIT
  @DF-UKS Final Energy:   -92.73760654469265
    Total Energy =                        -92.7376065446926532
 Dipole X            :          0.0000000            0.0000000            0.0000000
 Dipole Y            :          0.0000000            0.0000000            0.0000000
 Dipole Z            :          0.5617974            0.0014791            0.5632765
 Magnitude           :                                                    0.5632765
    Molecular point group: c2v

    Geometry (in Angstrom), charge = 0, multiplicity = 2:

       Center              X                  Y                   Z               Mass
    ------------   -----------------  -----------------  -----------------  -----------------
         N            0.000000000000     0.000000000000    -0.509227639692    14.003074004430
         C            0.000000000000     0.000000000000     0.594229360308    12.000000000000

  Charge       = 0
  Multiplicity = 2
  Basis Set: CC-PVTZ
    Blend: CC-PVTZ
  Basis Set: (CC-PVTZ AUX)
    Blend: CC-PVTZ-JKFIT

    Orbital Energies [Eh]
    ---------------------

    Alpha Occupied:

       1A1   -14.369482     2A1   -10.278647     3A1    -0.986634
       4A1    -0.492070     5A1    -0.410694     1B2    -0.408781
       1B1    -0.408781

    Alpha Virtual:

       2B1     0.005627     2B2     0.005627     6A1     0.167730
       7A1     0.262363     3B1     0.278752     3B2     0.278752
       8A1     0.440676     4B1     0.518689     4B2     0.518689
       9A1     0.617714     1A2     0.617714    10A1     0.664317
       5B1     0.843964     5B2     0.843964    11A1     0.896483
       2A2     1.176846    12A1     1.176846    13A1     1.347444
       6B1     1.531171     6B2     1.531171    14A1     1.783903
       7B2     1.944392     7B1     1.944392    15A1     2.224631
       8B2     2.611593     8B1     2.611593    16A1     2.728836
      17A1     2.732526     3A2     2.732527     9B1     2.812376
       9B2     2.812376    18A1     2.911851     4A2     2.911852
      10B2     2.948598    10B1     2.948598    19A1     3.136904
      11B1     3.437785    11B2     3.437785    12B2     3.946420
      12B1     3.946420    20A1     4.051735     5A2     4.458058
      21A1     4.458061     6A2     4.593052    22A1     4.593054
      13B2     4.834549    13B1     4.834549    23A1     5.057902
      24A1     5.370041    14B1     5.694418    14B2     5.694418
      25A1     6.312645    26A1    13.563133

    Beta Occupied:

       1A1   -14.365518     2A1   -10.262002     3A1    -0.964901
       4A1    -0.426215     1B2    -0.399637     1B1    -0.399637

    Beta Virtual:

       5A1    -0.251400     2B1     0.028205     2B2     0.028205
       6A1     0.174772     3B1     0.289046     3B2     0.289046
       7A1     0.303829     8A1     0.451980     4B1     0.521048
       4B2     0.521048     9A1     0.628841     1A2     0.628841
      10A1     0.709570     5B1     0.874178     5B2     0.874178
      11A1     0.906560     2A2     1.179355    12A1     1.179355
      13A1     1.387444     6B1     1.545985     6B2     1.545985
      14A1     1.809656     7B2     1.960427     7B1     1.960427
      15A1     2.275514     8B2     2.629206     8B1     2.629206
      16A1     2.745835     3A2     2.745835    17A1     2.768499
       9B1     2.865558     9B2     2.865558    18A1     2.959550
       4A2     2.959550    10B2     2.973839    10B1     2.973839
      19A1     3.220410    11B1     3.472389    11B2     3.472389
      12B2     3.942019    12B1     3.942019    20A1     4.083315
       5A2     4.453675    21A1     4.453679     6A2     4.603077
      22A1     4.603079    13B2     4.854050    13B1     4.854050
      23A1     5.091119    24A1     5.397602    14B1     5.720490
      14B2     5.720490    25A1     6.326743    26A1    13.585200

    Final Occupation by Irrep:
             A1    A2    B1    B2
    DOCC [     4,    0,    1,    1 ]
    SOCC [     1,    0,    0,    0 ]
    NA   [     5,    0,    1,    1 ]
    NB   [     4,    0,    1,    1 ]

  @DF-UKS Final Energy:   -92.73760654380361

   => Energetics <=

    Nuclear Repulsion Energy =             20.1416483362197134
    One-Electron Energy =                -164.4641730591728219
    Two-Electron Energy =                  61.4765787722741237
    DFT Exchange-Correlation Energy =      -9.8916605931246089
    Empirical Dispersion Energy =           0.0000000000000000
    VV10 Nonlocal Energy =                  0.0000000000000000
    Total Energy =                        -92.7376065438036079

  UHF NO Occupations:
  HONO-2 :    1 B1 1.9986662
  HONO-1 :    1 B2 1.9986662
  HONO-0 :    5 A1 1.0000000
  LUNO+0 :    2 B1 0.0013338
  LUNO+1 :    2 B2 0.0013338
  LUNO+2 :    6 A1 0.0009043
  LUNO+3 :    7 A1 0.0000794

Computation Completed

Properties will be evaluated at   0.000000,   0.000000,   0.000000 [a0]

Properties computed using the B3LYP density matrix

 Multipole Moments:

 ------------------------------------------------------------------------------------
     Multipole            Electronic (a.u.)      Nuclear  (a.u.)        Total (a.u.)
 ------------------------------------------------------------------------------------

 L = 1.  Multiply by 2.5417464519 to convert [e a0] to [Debye]
 Dipole X            :          0.0000000            0.0000000            0.0000000
 Dipole Y            :          0.0000000            0.0000000            0.0000000
 Dipole Z            :          0.5617974            0.0014791            0.5632765
 Magnitude           :                                                    0.5632765

 L = 2.  Multiply by 1.3450342976 to convert [e a0^2] to [Debye ang]
 Quadrupole XX       :         -7.9720344            0.0000000           -7.9720344
 Quadrupole XY       :          0.0000000            0.0000000            0.0000000
 Quadrupole XZ       :          0.0000000            0.0000000            0.0000000
 Quadrupole YY       :         -7.9720344            0.0000000           -7.9720344
 Quadrupole YZ       :          0.0000000            0.0000000            0.0000000
 Quadrupole ZZ       :        -21.8185053           14.0480002           -7.7705051
 Traceless XX        :          4.6154903           -4.6826667           -0.0671764
 Traceless YY        :          4.6154903           -4.6826667           -0.0671764
 Traceless ZZ        :         -9.2309806            9.3653335            0.1343529

 ------------------------------------------------------------------------------------
  ==> Computing MBIS Charges <==

  Electron Count from Grid (Expected Number): 13.00000 (13.00000)
  Difference: -0.00000

  MBIS Charges: (a.u.)
   Center  Symbol  Z      Pop.       Charge
      1       N    7    7.281791   -0.281791
      2       C    6    5.718209    0.281791

  MBIS Dipoles: [e a0]
   Center  Symbol  Z        X           Y           Z
      1       N    7    0.000000   -0.000000   -0.158302
      2       C    6   -0.000000   -0.000000    0.133979

  MBIS Quadrupoles: [e a0^2]
   Center  Symbol  Z      XX        XY        XZ        YY        YZ        ZZ
      1       N    7   -4.2131    0.0000   -0.0000   -4.2131   -0.0000   -4.5444
      2       C    6   -3.7589    0.0000    0.0000   -3.7589    0.0000   -3.9261

  MBIS Octupoles: [e a0^3]
   Center  Symbol  Z      XXX       XXY       XXZ       XYY       XYZ       XZZ       YYY       YYZ       YZZ       ZZZ
      1       N    7   -0.0000   -0.0000   -0.1858   -0.0000    0.0000   -0.0000   -0.0000   -0.1858    0.0000   -0.2544
      2       C    6   -0.0000   -0.0000    0.0790   -0.0000    0.0000   -0.0000   -0.0000    0.0790    0.0000    0.0994

  MBIS Radial Moments:
   Center  Symbol  Z      [a0^2]      [a0^3]      [a0^4]
      1       N    7   12.970636   27.439728   69.403417
      2       C    6   11.443890   26.598910   73.913504

  MBIS Valence Widths: [a0]
   Center  Symbol  Z     Width
      1       N    7    0.440632
      2       C    6    0.487790

*** tstop() called on Mac.lan at Sun Aug 10 17:12:48 2025
Module time:
	user time   =       3.93 seconds =       0.07 minutes
	system time =       2.28 seconds =       0.04 minutes
	total time  =          1 seconds =       0.02 minutes
Total time:
	user time   =      21.09 seconds =       0.35 minutes
	system time =       4.68 seconds =       0.08 minutes
	total time  =          3 seconds =       0.05 minutes

    Psi4 stopped on: Sunday, 10 August 2025 05:12PM
    Psi4 wall time for execution: 0:00:02.49

*** Psi4 exiting successfully. Buy a developer a beer!
