                               Psi4 1.9.1 release

  ==> Input File <==

--------------------------------------------------------------------------
molecule {
0 2
N           0.000000           0.000000           0.000000
C           0.000000           0.000000           1.530602
}

set {
basis              cc-pvtz
reference          uks
maxiter            500
DAMPING_PERCENTAGE 1
E_CONVERGENCE      1.0E-8
D_CONVERGENCE      1.0E-8
DIIS_MAX_VECS      400
MBIS_MAXITER       8000
guess              read
}

E, wfn = energy('b3lyp', restart_file='last_wfn', return_wfn=True)
properties('b3lyp','MBIS_CHARGES', wfn=wfn)
wfn.to_file('last_wfn')
--------------------------------------------------------------------------

    Molecular point group: c2v
  Charge       = 0
  Multiplicity = 2
  Basis Set: CC-PVTZ
    Blend: CC-PVTZ
  Basis Set: (CC-PVTZ AUX)
    Blend: CC-PVTZ-JKFIT
  @DF-UKS Final Energy:   -92.61774320159756
    Total Energy =                        -92.6177432015975626
 Dipole X            :          0.0000000            0.0000000            0.0000000
 Dipole Y            :          0.0000000            0.0000000            0.0000000
 Dipole Z            :          0.3990808            0.0020516            0.4011324
 Magnitude           :                                                    0.4011324
    Molecular point group: c2v

    Geometry (in Angstrom), charge = 0, multiplicity = 2:

       Center              X                  Y                   Z               Mass
    ------------   -----------------  -----------------  -----------------  -----------------
         N            0.000000000000     0.000000000000    -0.706348180099    14.003074004430
         C            0.000000000000     0.000000000000     0.824253819901    12.000000000000

  Charge       = 0
  Multiplicity = 2
  Basis Set: CC-PVTZ
    Blend: CC-PVTZ
  Basis Set: (CC-PVTZ AUX)
    Blend: CC-PVTZ-JKFIT

    Orbital Energies [Eh]
    ---------------------

    Alpha Occupied:

       1A1   -14.451889     2A1   -10.373177     3A1    -0.851209
       4A1    -0.566146     5A1    -0.405320     1B1    -0.337055
       1B2    -0.337055

    Alpha Virtual:

       2B1    -0.119318     2B2    -0.119318     6A1     0.103196
       7A1     0.272698     3B2     0.291912     3B1     0.291912
       8A1     0.307911     9A1     0.433412     4B1     0.497243
       4B2     0.497243     1A2     0.628921    10A1     0.628921
       5B1     0.706198     5B2     0.706198    11A1     0.868034
      12A1     1.019521    13A1     1.080590     2A2     1.080590
       6B1     1.354084     6B2     1.354084    14A1     1.546108
       7B2     1.938047     7B1     1.938047    15A1     2.137949
       8B2     2.589525     8B1     2.589525     3A2     2.612000
      16A1     2.612000     9B2     2.626202     9B1     2.626202
      17A1     2.745068     4A2     2.889329    18A1     2.889330
      10B2     2.904593    10B1     2.904593    19A1     3.076841
      11B2     3.153023    11B1     3.153023    20A1     3.169492
      12B2     3.869592    12B1     3.869592    21A1     4.002617
       5A2     4.002619    22A1     4.140245    13B1     4.374509
      13B2     4.374509    23A1     4.437863     6A2     4.437874
      24A1     4.714446    14B1     4.850317    14B2     4.850317
      25A1     5.474811    26A1     7.352055

    Beta Occupied:

       1A1   -14.444008     2A1   -10.362078     3A1    -0.822000
       4A1    -0.502714     1B1    -0.330420     1B2    -0.330420

    Beta Virtual:

       5A1    -0.250993     2B1    -0.103743     2B2    -0.103743
       6A1     0.130834     3B2     0.298494     3B1     0.298494
       7A1     0.313171     8A1     0.333626     9A1     0.459698
       4B1     0.498063     4B2     0.498063     1A2     0.635931
      10A1     0.635931     5B1     0.733532     5B2     0.733532
      11A1     0.878777    12A1     1.057244    13A1     1.080026
       2A2     1.080026     6B1     1.378537     6B2     1.378537
      14A1     1.578578     7B2     1.949777     7B1     1.949777
      15A1     2.184725     8B2     2.611782     8B1     2.611782
       9B1     2.635681     9B2     2.635681     3A2     2.635839
      16A1     2.635839    17A1     2.794471     4A2     2.905794
      18A1     2.905795    10B2     2.928501    10B1     2.928501
      19A1     3.126582    11B2     3.193357    11B1     3.193357
      20A1     3.219156    12B2     3.863449    12B1     3.863449
      21A1     4.016485     5A2     4.016486    22A1     4.175620
      13B1     4.405763    13B2     4.405763    23A1     4.435976
       6A2     4.435987    24A1     4.775167    14B1     4.890693
      14B2     4.890693    25A1     5.501187    26A1     7.373142

    Final Occupation by Irrep:
             A1    A2    B1    B2
    DOCC [     4,    0,    1,    1 ]
    SOCC [     1,    0,    0,    0 ]
    NA   [     5,    0,    1,    1 ]
    NB   [     4,    0,    1,    1 ]

  @DF-UKS Final Energy:   -92.61774319175738

   => Energetics <=

    Nuclear Repulsion Energy =             14.5207198528030137
    One-Electron Energy =                -153.2223806871439820
    Two-Electron Energy =                  55.7109921435244146
    DFT Exchange-Correlation Energy =      -9.6270745009408358
    Empirical Dispersion Energy =           0.0000000000000000
    VV10 Nonlocal Energy =                  0.0000000000000000
    Total Energy =                        -92.6177431917573983

  UHF NO Occupations:
  HONO-2 :    1 B2 1.9983379
  HONO-1 :    4 A1 1.9966199
  HONO-0 :    5 A1 1.0000000
  LUNO+0 :    6 A1 0.0033801
  LUNO+1 :    2 B2 0.0016621
  LUNO+2 :    2 B1 0.0016621
  LUNO+3 :    7 A1 0.0002463

Computation Completed

Properties will be evaluated at   0.000000,   0.000000,   0.000000 [a0]

Properties computed using the B3LYP density matrix

 Multipole Moments:

 ------------------------------------------------------------------------------------
     Multipole            Electronic (a.u.)      Nuclear  (a.u.)        Total (a.u.)
 ------------------------------------------------------------------------------------

 L = 1.  Multiply by 2.5417464519 to convert [e a0] to [Debye]
 Dipole X            :          0.0000000            0.0000000            0.0000000
 Dipole Y            :          0.0000000            0.0000000            0.0000000
 Dipole Z            :          0.3990806            0.0020516            0.4011322
 Magnitude           :                                                    0.4011322

 L = 2.  Multiply by 1.3450342976 to convert [e a0^2] to [Debye ang]
 Quadrupole XX       :         -8.9079768            0.0000000           -8.9079768
 Quadrupole XY       :          0.0000000            0.0000000            0.0000000
 Quadrupole XZ       :          0.0000000            0.0000000            0.0000000
 Quadrupole YY       :         -8.9079768            0.0000000           -8.9079768
 Quadrupole YZ       :          0.0000000            0.0000000            0.0000000
 Quadrupole ZZ       :        -34.4685467           27.0288912           -7.4396555
 Traceless XX        :          8.5201900           -9.0096304           -0.4894404
 Traceless YY        :          8.5201900           -9.0096304           -0.4894404
 Traceless ZZ        :        -17.0403800           18.0192608            0.9788808

 ------------------------------------------------------------------------------------
  ==> Computing MBIS Charges <==

  Electron Count from Grid (Expected Number): 13.00000 (13.00000)
  Difference: -0.00000

  MBIS Charges: (a.u.)
   Center  Symbol  Z      Pop.       Charge
      1       N    7    7.175720   -0.175720
      2       C    6    5.824280    0.175720

  MBIS Dipoles: [e a0]
   Center  Symbol  Z        X           Y           Z
      1       N    7   -0.000000    0.000000   -0.270762
      2       C    6   -0.000000    0.000000    0.163637

  MBIS Quadrupoles: [e a0^2]
   Center  Symbol  Z      XX        XY        XZ        YY        YZ        ZZ
      1       N    7   -4.5521    0.0000   -0.0000   -4.5521    0.0000   -4.3969
      2       C    6   -4.3558    0.0000    0.0000   -4.3558    0.0000   -4.3886

  MBIS Octupoles: [e a0^3]
   Center  Symbol  Z      XXX       XXY       XXZ       XYY       XYZ       XZZ       YYY       YYZ       YZZ       ZZZ
      1       N    7   -0.0000   -0.0000   -0.4274    0.0000    0.0000   -0.0000   -0.0000   -0.4274   -0.0000   -1.1332
      2       C    6   -0.0000    0.0000    0.4231   -0.0000    0.0000    0.0000    0.0000    0.4231    0.0000    0.9151

  MBIS Radial Moments:
   Center  Symbol  Z      [a0^2]      [a0^3]      [a0^4]
      1       N    7   13.501169   29.463120   76.558220
      2       C    6   13.100280   32.034196   93.024999

  MBIS Valence Widths: [a0]
   Center  Symbol  Z     Width
      1       N    7    0.455071
      2       C    6    0.518459

*** tstop() called on Mac.lan at Sun Aug 10 17:15:35 2025
Module time:
	user time   =       3.64 seconds =       0.06 minutes
	system time =       1.93 seconds =       0.03 minutes
	total time  =          1 seconds =       0.02 minutes
Total time:
	user time   =      31.33 seconds =       0.52 minutes
	system time =       4.69 seconds =       0.08 minutes
	total time  =          4 seconds =       0.07 minutes

    Psi4 stopped on: Sunday, 10 August 2025 05:15PM
    Psi4 wall time for execution: 0:00:03.46

*** Psi4 exiting successfully. Buy a developer a beer!
