                               Psi4 1.9.1 release

  ==> Input File <==

--------------------------------------------------------------------------
molecule {
0 1
N           0.000000           0.000000           0.000000
N           0.000000           0.000000           1.336318
}

set {
basis              cc-pvtz
reference          uks
maxiter            500
DAMPING_PERCENTAGE 1
E_CONVERGENCE      1.0E-8
D_CONVERGENCE      1.0E-8
DIIS_MAX_VECS      400
MBIS_MAXITER       8000
guess              read
}

E, wfn = energy('b3lyp', restart_file='last_wfn', return_wfn=True)
properties('b3lyp','MBIS_CHARGES', wfn=wfn)
wfn.to_file('last_wfn')
--------------------------------------------------------------------------

    Molecular point group: d2h
  Charge       = 0
  Multiplicity = 1
  Basis Set: CC-PVTZ
    Blend: CC-PVTZ
  Basis Set: (CC-PVTZ AUX)
    Blend: CC-PVTZ-JKFIT
  @DF-UKS Final Energy:  -109.46938973274568
    Total Energy =                       -109.4693897327456824
 Dipole X            :          0.0000000            0.0000000            0.0000000
 Dipole Y            :          0.0000000            0.0000000            0.0000000
 Dipole Z            :          0.0000000           -0.0000000           -0.0000000
 Magnitude           :                                                    0.0000000
    Molecular point group: d2h

    Geometry (in Angstrom), charge = 0, multiplicity = 1:

       Center              X                  Y                   Z               Mass
    ------------   -----------------  -----------------  -----------------  -----------------
         N            0.000000000000     0.000000000000    -0.668159000000    14.003074004430
         N            0.000000000000     0.000000000000     0.668159000000    14.003074004430

  Charge       = 0
  Multiplicity = 1
  Basis Set: CC-PVTZ
    Blend: CC-PVTZ
  Basis Set: (CC-PVTZ AUX)
    Blend: CC-PVTZ-JKFIT

    Orbital Energies [Eh]
    ---------------------

    Alpha Occupied:

       1Ag   -14.474251     1B1u  -14.473889     2Ag    -0.999267
       2B1u   -0.615933     3Ag    -0.421573     1B2u   -0.407409
       1B3u   -0.407409

    Alpha Virtual:

       1B3g   -0.117916     1B2g   -0.117916     3B1u    0.201322
       2B3u    0.411759     2B2u    0.411759     4Ag     0.434510
       4B1u    0.438787     5Ag     0.483682     2B2g    0.510518
       2B3g    0.510518     1B1g    0.859669     6Ag     0.859669
       5B1u    0.861138     3B3u    0.965409     3B2u    0.965409
       1Au     1.185821     6B1u    1.185821     7Ag     1.606746
       3B3g    1.612068     3B2g    1.612068     7B1u    1.645615
       4B3u    2.702094     4B2u    2.702094     8Ag     2.829345
       4B2g    2.919125     4B3g    2.919125     2B1g    3.464972
       9Ag     3.464972     5B3u    3.503976     5B2u    3.503976
       8B1u    3.589601    10Ag     3.671314     6B3u    3.714884
       6B2u    3.714884     5B2g    3.934069     5B3g    3.934069
       9B1u    4.272278    10B1u    4.326588     2Au     4.326589
      11Ag     4.327366     3B1g    4.327371    11B1u    4.568890
       3Au     4.568894     6B3g    4.570642     6B2g    4.570642
       7B2u    4.679727     7B3u    4.679727    12B1u    5.035946
      12Ag     5.262733     7B3g    5.555539     7B2g    5.555539
      13Ag     5.564300    13B1u    9.788031

    Beta Occupied:

       1Ag   -14.474251     1B1u  -14.473889     2Ag    -0.999267
       2B1u   -0.615933     3Ag    -0.421573     1B2u   -0.407409
       1B3u   -0.407409

    Beta Virtual:

       1B3g   -0.117916     1B2g   -0.117916     3B1u    0.201322
       2B3u    0.411759     2B2u    0.411759     4Ag     0.434510
       4B1u    0.438787     5Ag     0.483682     2B2g    0.510518
       2B3g    0.510518     1B1g    0.859669     6Ag     0.859669
       5B1u    0.861138     3B3u    0.965409     3B2u    0.965409
       1Au     1.185821     6B1u    1.185821     7Ag     1.606746
       3B3g    1.612068     3B2g    1.612068     7B1u    1.645615
       4B3u    2.702094     4B2u    2.702094     8Ag     2.829345
       4B2g    2.919125     4B3g    2.919125     2B1g    3.464972
       9Ag     3.464972     5B3u    3.503976     5B2u    3.503976
       8B1u    3.589601    10Ag     3.671314     6B3u    3.714884
       6B2u    3.714884     5B2g    3.934069     5B3g    3.934069
       9B1u    4.272278    10B1u    4.326588     2Au     4.326589
      11Ag     4.327366     3B1g    4.327371    11B1u    4.568890
       3Au     4.568894     6B3g    4.570642     6B2g    4.570642
       7B2u    4.679727     7B3u    4.679727    12B1u    5.035946
      12Ag     5.262733     7B3g    5.555539     7B2g    5.555539
      13Ag     5.564300    13B1u    9.788031

    Final Occupation by Irrep:
             Ag   B1g   B2g   B3g    Au   B1u   B2u   B3u
    DOCC [     3,    0,    0,    0,    0,    2,    1,    1 ]
    SOCC [     0,    0,    0,    0,    0,    0,    0,    0 ]
    NA   [     3,    0,    0,    0,    0,    2,    1,    1 ]
    NB   [     3,    0,    0,    0,    0,    2,    1,    1 ]

  @DF-UKS Final Energy:  -109.46938973290496

   => Energetics <=

    Nuclear Repulsion Energy =             19.4038270253263079
    One-Electron Energy =                -186.3017164837967528
    Two-Electron Energy =                  68.3236802308511812
    DFT Exchange-Correlation Energy =     -10.8951805052856905
    Empirical Dispersion Energy =           0.0000000000000000
    VV10 Nonlocal Energy =                  0.0000000000000000
    Total Energy =                       -109.4693897329049577

  UHF NO Occupations:
  HONO-2 :    2B1u 2.0000000
  HONO-1 :    2 Ag 2.0000000
  HONO-0 :    3 Ag 2.0000000
  LUNO+0 :    4 Ag 0.0000000
  LUNO+1 :    5 Ag 0.0000000
  LUNO+2 :    3B1u 0.0000000
  LUNO+3 :    4B1u 0.0000000

Computation Completed

Properties will be evaluated at   0.000000,   0.000000,   0.000000 [a0]

Properties computed using the B3LYP density matrix

 Multipole Moments:

 ------------------------------------------------------------------------------------
     Multipole            Electronic (a.u.)      Nuclear  (a.u.)        Total (a.u.)
 ------------------------------------------------------------------------------------

 L = 1.  Multiply by 2.5417464519 to convert [e a0] to [Debye]
 Dipole X            :          0.0000000            0.0000000            0.0000000
 Dipole Y            :          0.0000000            0.0000000            0.0000000
 Dipole Z            :          0.0000000           -0.0000000           -0.0000000
 Magnitude           :                                                    0.0000000

 L = 2.  Multiply by 1.3450342976 to convert [e a0^2] to [Debye ang]
 Quadrupole XX       :         -8.0071281            0.0000000           -8.0071281
 Quadrupole XY       :          0.0000000            0.0000000            0.0000000
 Quadrupole XZ       :          0.0000000            0.0000000            0.0000000
 Quadrupole YY       :         -8.0071281            0.0000000           -8.0071281
 Quadrupole YZ       :          0.0000000            0.0000000            0.0000000
 Quadrupole ZZ       :        -30.9832373           22.3195490           -8.6636882
 Traceless XX        :          7.6587031           -7.4398497            0.2188534
 Traceless YY        :          7.6587031           -7.4398497            0.2188534
 Traceless ZZ        :        -15.3174061           14.8796994           -0.4377068

 ------------------------------------------------------------------------------------
  ==> Computing MBIS Charges <==

  Electron Count from Grid (Expected Number): 14.00000 (14.00000)
  Difference:  0.00000

  MBIS Charges: (a.u.)
   Center  Symbol  Z      Pop.       Charge
      1       N    7    7.000000   -0.000000
      2       N    7    7.000000   -0.000000

  MBIS Dipoles: [e a0]
   Center  Symbol  Z        X           Y           Z
      1       N    7   -0.000000   -0.000000    0.002583
      2       N    7    0.000000   -0.000000   -0.002583

  MBIS Quadrupoles: [e a0^2]
   Center  Symbol  Z      XX        XY        XZ        YY        YZ        ZZ
      1       N    7   -4.0036    0.0000   -0.0000   -4.0036   -0.0000   -4.3253
      2       N    7   -4.0036    0.0000    0.0000   -4.0036    0.0000   -4.3253

  MBIS Octupoles: [e a0^3]
   Center  Symbol  Z      XXX       XXY       XXZ       XYY       XYZ       XZZ       YYY       YYZ       YZZ       ZZZ
      1       N    7   -0.0000   -0.0000   -0.1038    0.0000    0.0000    0.0000   -0.0000   -0.1038    0.0000   -0.1941
      2       N    7   -0.0000   -0.0000    0.1038   -0.0000   -0.0000    0.0000   -0.0000    0.1038   -0.0000    0.1941

  MBIS Radial Moments:
   Center  Symbol  Z      [a0^2]      [a0^3]      [a0^4]
      1       N    7   12.332450   26.003090   65.292971
      2       N    7   12.332450   26.003090   65.292971

  MBIS Valence Widths: [a0]
   Center  Symbol  Z     Width
      1       N    7    0.441775
      2       N    7    0.441775

*** tstop() called on Mac.lan at Sun Aug 10 17:07:09 2025
Module time:
	user time   =       6.54 seconds =       0.11 minutes
	system time =       3.15 seconds =       0.05 minutes
	total time  =          1 seconds =       0.02 minutes
Total time:
	user time   =      30.40 seconds =       0.51 minutes
	system time =       6.38 seconds =       0.11 minutes
	total time  =          4 seconds =       0.07 minutes

    Psi4 stopped on: Sunday, 10 August 2025 05:07PM
    Psi4 wall time for execution: 0:00:03.76

*** Psi4 exiting successfully. Buy a developer a beer!
