                               Psi4 1.9.1 release

  ==> Input File <==

--------------------------------------------------------------------------
molecule {
0 3
C           0.000000           0.000000           0.000000
C           0.000000           0.000000           1.928802
}

set {
basis              cc-pvtz
reference          uks
maxiter            500
DAMPING_PERCENTAGE 1
E_CONVERGENCE      1.0E-8
D_CONVERGENCE      1.0E-8
DIIS_MAX_VECS      400
MBIS_MAXITER       8000
guess              read
}

E, wfn = energy('b3lyp', restart_file='last_wfn', return_wfn=True)
properties('b3lyp','MBIS_CHARGES', wfn=wfn)
wfn.to_file('last_wfn')
--------------------------------------------------------------------------

    Molecular point group: d2h
  Charge       = 0
  Multiplicity = 3
  Basis Set: CC-PVTZ
    Blend: CC-PVTZ
  Basis Set: (CC-PVTZ AUX)
    Blend: CC-PVTZ-JKFIT
  @DF-UKS Final Energy:   -75.79492355806758
    Total Energy =                        -75.7949235580675804
 Dipole X            :          0.0000000            0.0000000            0.0000000
 Dipole Y            :          0.0000000            0.0000000            0.0000000
 Dipole Z            :          0.0000000           -0.0000000           -0.0000000
 Magnitude           :                                                    0.0000000
    Molecular point group: d2h

    Geometry (in Angstrom), charge = 0, multiplicity = 3:

       Center              X                  Y                   Z               Mass
    ------------   -----------------  -----------------  -----------------  -----------------
         C            0.000000000000     0.000000000000    -0.964401000000    12.000000000000
         C            0.000000000000     0.000000000000     0.964401000000    12.000000000000

  Charge       = 0
  Multiplicity = 3
  Basis Set: CC-PVTZ
    Blend: CC-PVTZ
  Basis Set: (CC-PVTZ AUX)
    Blend: CC-PVTZ-JKFIT

    Orbital Energies [Eh]
    ---------------------

    Alpha Occupied:

       1Ag   -10.352689     1B1u  -10.352584     2Ag    -0.676241
       2B1u   -0.533589     3Ag    -0.335261     1B3u   -0.294981
       1B2u   -0.267785

    Alpha Virtual:

       1B2g   -0.159236     1B3g   -0.132017     3B1u   -0.016055
       4B1u    0.247956     2B3u    0.276841     2B2u    0.291553
       4Ag     0.293052     2B2g    0.332740     5Ag     0.340648
       2B3g    0.345022     3B3u    0.558703     3B2u    0.577869
       1B1g    0.586514     6Ag     0.586803     5B1u    0.596060
       1Au     0.736752     6B1u    0.737282     7Ag     0.907708
       3B2g    0.973042     3B3g    0.990698     7B1u    1.118996
       4B3u    1.837015     8Ag     1.851072     4B2u    1.858059
       4B2g    1.949311     4B3g    1.972698     8B1u    2.312089
       5B3u    2.397250     9Ag     2.418874     5B2u    2.419102
       2B1g    2.477032    10Ag     2.479065     6B3u    2.613940
       6B2u    2.614045     5B2g    2.659354     5B3g    2.659431
       9B1u    2.777654     2Au     2.777738    11Ag     2.867591
       3B1g    2.867610     6B2g    2.902659     6B3g    2.925484
       7B3u    2.940774     7B2u    2.963726    10B1u    2.965349
       3Au     2.967285    11B1u    3.004456    12Ag     3.280338
       7B2g    3.399449     7B3g    3.420229    12B1u    3.523099
      13Ag     3.918553    13B1u    4.783078

    Beta Occupied:

       1Ag   -10.338052     1B1u  -10.338025     2Ag    -0.614930
       2B1u   -0.460979     1B2u   -0.252540

    Beta Virtual:

       3Ag    -0.191376     1B3u   -0.169740     1B3g   -0.114931
       1B2g   -0.079443     3B1u    0.046281     4B1u    0.284646
       2B2u    0.297592     2B3u    0.309287     4Ag     0.323969
       2B3g    0.349903     2B2g    0.358843     5Ag     0.365028
       3B2u    0.604653     1B1g    0.609846     6Ag     0.611846
       3B3u    0.613941     5B1u    0.617456     1Au     0.758485
       6B1u    0.760414     7Ag     0.954443     3B3g    1.013722
       3B2g    1.018654     7B1u    1.159702     4B2u    1.872729
       4B3u    1.886529     8Ag     1.905205     4B3g    1.982645
       4B2g    1.995524     8B1u    2.358896     5B2u    2.449688
       5B3u    2.457709     9Ag     2.468818     2B1g    2.519168
      10Ag     2.521528     6B2u    2.642528     6B3u    2.643216
       5B3g    2.687863     5B2g    2.688538     2Au     2.810274
       9B1u    2.813099     3B1g    2.902512    11Ag     2.906714
       6B3g    2.956766     6B2g    2.971735     7B2u    3.003606
       3Au     3.009095    10B1u    3.012245     7B3u    3.019341
      11B1u    3.066580    12Ag     3.345706     7B3g    3.459877
       7B2g    3.467915    12B1u    3.570843    13Ag     3.950913
      13B1u    4.817330

    Final Occupation by Irrep:
             Ag   B1g   B2g   B3g    Au   B1u   B2u   B3u
    DOCC [     2,    0,    0,    0,    0,    2,    1,    0 ]
    SOCC [     1,    0,    0,    0,    0,    0,    0,    1 ]
    NA   [     3,    0,    0,    0,    0,    2,    1,    1 ]
    NB   [     2,    0,    0,    0,    0,    2,    1,    0 ]

  @DF-UKS Final Energy:   -75.79492355809526

   => Energetics <=

    Nuclear Repulsion Energy =              9.8767937736066269
    One-Electron Energy =                -120.4870910192925209
    Two-Electron Energy =                  43.1780429336951741
    DFT Exchange-Correlation Energy =      -8.3626692461045291
    Empirical Dispersion Energy =           0.0000000000000000
    VV10 Nonlocal Energy =                  0.0000000000000000
    Total Energy =                        -75.7949235580952632

  UHF NO Occupations:
  HONO-2 :    2B1u 1.9973048
  HONO-1 :    3 Ag 1.0000000
  HONO-0 :    1B3u 1.0000000
  LUNO+0 :    3B1u 0.0026952
  LUNO+1 :    4 Ag 0.0004738
  LUNO+2 :    2B2u 0.0001730
  LUNO+3 :    4B1u 0.0000006

Computation Completed

Properties will be evaluated at   0.000000,   0.000000,   0.000000 [a0]

Properties computed using the B3LYP density matrix

 Multipole Moments:

 ------------------------------------------------------------------------------------
     Multipole            Electronic (a.u.)      Nuclear  (a.u.)        Total (a.u.)
 ------------------------------------------------------------------------------------

 L = 1.  Multiply by 2.5417464519 to convert [e a0] to [Debye]
 Dipole X            :          0.0000000            0.0000000            0.0000000
 Dipole Y            :          0.0000000            0.0000000            0.0000000
 Dipole Z            :          0.0000000           -0.0000000           -0.0000000
 Magnitude           :                                                    0.0000000

 L = 2.  Multiply by 1.3450342976 to convert [e a0^2] to [Debye ang]
 Quadrupole XX       :         -8.7685214            0.0000000           -8.7685214
 Quadrupole XY       :          0.0000000            0.0000000            0.0000000
 Quadrupole XZ       :          0.0000000            0.0000000            0.0000000
 Quadrupole YY       :        -10.4889594            0.0000000          -10.4889594
 Quadrupole YZ       :          0.0000000            0.0000000            0.0000000
 Quadrupole ZZ       :        -48.1472167           39.8560527           -8.2911640
 Traceless XX        :         13.6997111          -13.2853509            0.4143602
 Traceless YY        :         11.9792731          -13.2853509           -1.3060778
 Traceless ZZ        :        -25.6789842           26.5707018            0.8917176

 ------------------------------------------------------------------------------------
  ==> Computing MBIS Charges <==

  Electron Count from Grid (Expected Number): 12.00000 (12.00000)
  Difference: -0.00000

  MBIS Charges: (a.u.)
   Center  Symbol  Z      Pop.       Charge
      1       C    6    6.000000    0.000000
      2       C    6    6.000000    0.000000

  MBIS Dipoles: [e a0]
   Center  Symbol  Z        X           Y           Z
      1       C    6    0.000000   -0.000000   -0.180738
      2       C    6    0.000000   -0.000000    0.180738

  MBIS Quadrupoles: [e a0^2]
   Center  Symbol  Z      XX        XY        XZ        YY        YZ        ZZ
      1       C    6   -4.3843    0.0000    0.0000   -5.2445   -0.0000   -4.8044
      2       C    6   -4.3843    0.0000   -0.0000   -5.2445    0.0000   -4.8044

  MBIS Octupoles: [e a0^3]
   Center  Symbol  Z      XXX       XXY       XXZ       XYY       XYZ       XZZ       YYY       YYZ       YZZ       ZZZ
      1       C    6   -0.0000   -0.0000   -0.3666    0.0000   -0.0000   -0.0000    0.0000   -0.6295    0.0000   -1.2929
      2       C    6   -0.0000   -0.0000    0.3666    0.0000    0.0000   -0.0000    0.0000    0.6295    0.0000    1.2929

  MBIS Radial Moments:
   Center  Symbol  Z      [a0^2]      [a0^3]      [a0^4]
      1       C    6   14.433095   36.536512   110.085116
      2       C    6   14.433095   36.536512   110.085116

  MBIS Valence Widths: [a0]
   Center  Symbol  Z     Width
      1       C    6    0.533011
      2       C    6    0.533011

*** tstop() called on Mac.lan at Sun Aug 10 17:05:06 2025
Module time:
	user time   =       3.74 seconds =       0.06 minutes
	system time =       2.06 seconds =       0.03 minutes
	total time  =          1 seconds =       0.02 minutes
Total time:
	user time   =      18.05 seconds =       0.30 minutes
	system time =       4.13 seconds =       0.07 minutes
	total time  =          3 seconds =       0.05 minutes

    Psi4 stopped on: Sunday, 10 August 2025 05:05PM
    Psi4 wall time for execution: 0:00:02.16

*** Psi4 exiting successfully. Buy a developer a beer!
