                               Psi4 1.9.1 release

  ==> Input File <==

--------------------------------------------------------------------------
molecule {
0 3
O           0.000000           0.000000           0.000000
O           0.000000           0.000000           1.498671
}

set {
basis              cc-pvtz
reference          uks
maxiter            500
DAMPING_PERCENTAGE 1
E_CONVERGENCE      1.0E-8
D_CONVERGENCE      1.0E-8
DIIS_MAX_VECS      400
MBIS_MAXITER       8000
guess              read
}

E, wfn = energy('b3lyp', restart_file='last_wfn', return_wfn=True)
properties('b3lyp','MBIS_CHARGES', wfn=wfn)
wfn.to_file('last_wfn')
--------------------------------------------------------------------------

    Molecular point group: d2h
  Charge       = 0
  Multiplicity = 3
  Basis Set: CC-PVTZ
    Blend: CC-PVTZ
  Basis Set: (CC-PVTZ AUX)
    Blend: CC-PVTZ-JKFIT
  @DF-UKS Final Energy:  -150.31375482610818
    Total Energy =                       -150.3137548261081804
 Dipole X            :          0.0000000            0.0000000            0.0000000
 Dipole Y            :          0.0000000            0.0000000            0.0000000
 Dipole Z            :          0.0000000            0.0000000            0.0000000
 Magnitude           :                                                    0.0000000
    Molecular point group: d2h

    Geometry (in Angstrom), charge = 0, multiplicity = 3:

       Center              X                  Y                   Z               Mass
    ------------   -----------------  -----------------  -----------------  -----------------
         O            0.000000000000     0.000000000000    -0.749335500000    15.994914619570
         O            0.000000000000     0.000000000000     0.749335500000    15.994914619570

  Charge       = 0
  Multiplicity = 3
  Basis Set: CC-PVTZ
    Blend: CC-PVTZ
  Basis Set: (CC-PVTZ AUX)
    Blend: CC-PVTZ-JKFIT

    Orbital Energies [Eh]
    ---------------------

    Alpha Occupied:

       1Ag   -19.314834     1B1u  -19.314786     2Ag    -1.145172
       2B1u   -0.920335     3Ag    -0.512415     1B2u   -0.501336
       1B3u   -0.501336     1B3g   -0.380187     1B2g   -0.380187

    Alpha Virtual:

       3B1u   -0.080080     4B1u    0.473467     2B3u    0.501724
       2B2u    0.501724     4Ag     0.577731     2B2g    0.604278
       2B3g    0.604278     5Ag     0.686759     5B1u    1.134830
       3B2u    1.188281     3B3u    1.188281     1B1g    1.280194
       6Ag     1.280194     1Au     1.501869     6B1u    1.501870
       7Ag     1.674498     3B3g    1.935826     3B2g    1.935826
       7B1u    2.239522     8Ag     3.356484     4B3u    3.381407
       4B2u    3.381407     4B2g    3.551360     4B3g    3.551360
       8B1u    4.179716     5B3u    4.643406     5B2u    4.643406
       9Ag     4.723990    10Ag     4.809693     2B1g    4.809693
       6B3u    4.984514     6B2u    4.984514     5B2g    5.033732
       5B3g    5.033732     9B1u    5.213102     2Au     5.213103
       6B2g    5.622751     6B3g    5.622751    10B1u    5.908499
       3B1g    5.981162    11Ag     5.981193     7B3u    6.080002
       7B2u    6.080002     3Au     6.124139    11B1u    6.124172
      12Ag     6.445987     7B2g    6.666495     7B3g    6.666495
      12B1u    7.102574    13Ag     7.324341    13B1u    8.337622

    Beta Occupied:

       1Ag   -19.284915     1B1u  -19.284796     2Ag    -1.077661
       2B1u   -0.830640     3Ag    -0.481787     1B2u   -0.392544
       1B3u   -0.392544

    Beta Virtual:

       1B3g   -0.191691     1B2g   -0.191691     3B1u   -0.042185
       4B1u    0.486252     2B3u    0.543291     2B2u    0.543291
       4Ag     0.591590     2B2g    0.642999     2B3g    0.642999
       5Ag     0.706440     5B1u    1.166486     3B2u    1.211692
       3B3u    1.211692     6Ag     1.327091     1B1g    1.327092
       6B1u    1.559789     1Au     1.559790     7Ag     1.704426
       3B3g    1.970252     3B2g    1.970252     7B1u    2.261058
       8Ag     3.374382     4B3u    3.454255     4B2u    3.454255
       4B2g    3.628038     4B3g    3.628038     8B1u    4.212009
       5B3u    4.679520     5B2u    4.679520     9Ag     4.759554
      10Ag     4.856948     2B1g    4.856948     6B3u    5.057422
       6B2u    5.057422     5B2g    5.107442     5B3g    5.107442
       9B1u    5.264273     2Au     5.264274     6B2g    5.667286
       6B3g    5.667286    10B1u    5.940374     3B1g    6.089899
      11Ag     6.089927     7B3u    6.141445     7B2u    6.141445
       3Au     6.230839    11B1u    6.230869    12Ag     6.470710
       7B2g    6.717697     7B3g    6.717697    12B1u    7.142615
      13Ag     7.387236    13B1u    8.378717

    Final Occupation by Irrep:
             Ag   B1g   B2g   B3g    Au   B1u   B2u   B3u
    DOCC [     3,    0,    0,    0,    0,    2,    1,    1 ]
    SOCC [     0,    0,    1,    1,    0,    0,    0,    0 ]
    NA   [     3,    0,    1,    1,    0,    2,    1,    1 ]
    NB   [     3,    0,    0,    0,    0,    2,    1,    1 ]

  @DF-UKS Final Energy:  -150.31375482597522

   => Energetics <=

    Nuclear Repulsion Energy =             22.5982497044915043
    One-Electron Energy =                -251.3136776839980371
    Two-Electron Energy =                  92.0283891140761625
    DFT Exchange-Correlation Energy =     -13.6267159605448622
    Empirical Dispersion Energy =           0.0000000000000000
    VV10 Nonlocal Energy =                  0.0000000000000000
    Total Energy =                       -150.3137548259752236

  UHF NO Occupations:
  HONO-2 :    1B2u 1.9978386
  HONO-1 :    1B2g 1.0000000
  HONO-0 :    1B3g 1.0000000
  LUNO+0 :    2B3u 0.0021614
  LUNO+1 :    2B2u 0.0021614
  LUNO+2 :    3B1u 0.0006253
  LUNO+3 :    4 Ag 0.0003189

Computation Completed

Properties will be evaluated at   0.000000,   0.000000,   0.000000 [a0]

Properties computed using the B3LYP density matrix

 Multipole Moments:

 ------------------------------------------------------------------------------------
     Multipole            Electronic (a.u.)      Nuclear  (a.u.)        Total (a.u.)
 ------------------------------------------------------------------------------------

 L = 1.  Multiply by 2.5417464519 to convert [e a0] to [Debye]
 Dipole X            :          0.0000000            0.0000000            0.0000000
 Dipole Y            :          0.0000000            0.0000000            0.0000000
 Dipole Z            :          0.0000000            0.0000000            0.0000000
 Magnitude           :                                                    0.0000000

 L = 2.  Multiply by 1.3450342976 to convert [e a0^2] to [Debye ang]
 Quadrupole XX       :         -7.6828302            0.0000000           -7.6828302
 Quadrupole XY       :          0.0000000            0.0000000            0.0000000
 Quadrupole XZ       :          0.0000000            0.0000000            0.0000000
 Quadrupole YY       :         -7.6828302            0.0000000           -7.6828302
 Quadrupole YZ       :          0.0000000            0.0000000            0.0000000
 Quadrupole ZZ       :        -39.3815459           32.0826574           -7.2988885
 Traceless XX        :         10.5662385          -10.6942191           -0.1279806
 Traceless YY        :         10.5662385          -10.6942191           -0.1279806
 Traceless ZZ        :        -21.1324771           21.3884382            0.2559611

 ------------------------------------------------------------------------------------
  ==> Computing MBIS Charges <==

  Electron Count from Grid (Expected Number): 16.00000 (16.00000)
  Difference: -0.00000

  MBIS Charges: (a.u.)
   Center  Symbol  Z      Pop.       Charge
      1       O    8    7.999999    0.000001
      2       O    8    7.999999    0.000001

  MBIS Dipoles: [e a0]
   Center  Symbol  Z        X           Y           Z
      1       O    8   -0.000000   -0.000000   -0.003285
      2       O    8   -0.000000    0.000000    0.003285

  MBIS Quadrupoles: [e a0^2]
   Center  Symbol  Z      XX        XY        XZ        YY        YZ        ZZ
      1       O    8   -3.8414   -0.0000    0.0000   -3.8414    0.0000   -3.6587
      2       O    8   -3.8414    0.0000   -0.0000   -3.8414   -0.0000   -3.6587

  MBIS Octupoles: [e a0^3]
   Center  Symbol  Z      XXX       XXY       XXZ       XYY       XYZ       XZZ       YYY       YYZ       YZZ       ZZZ
      1       O    8   -0.0000   -0.0000   -0.0432    0.0000    0.0000    0.0000    0.0000   -0.0432    0.0000   -0.3472
      2       O    8   -0.0000   -0.0000    0.0432    0.0000   -0.0000   -0.0000    0.0000    0.0432    0.0000    0.3472

  MBIS Radial Moments:
   Center  Symbol  Z      [a0^2]      [a0^3]      [a0^4]
      1       O    8   11.341579   21.408599   48.456955
      2       O    8   11.341579   21.408599   48.456955

  MBIS Valence Widths: [a0]
   Center  Symbol  Z     Width
      1       O    8    0.386717
      2       O    8    0.386717

*** tstop() called on Mac.lan at Sun Aug 10 17:02:03 2025
Module time:
	user time   =       4.06 seconds =       0.07 minutes
	system time =       2.38 seconds =       0.04 minutes
	total time  =          0 seconds =       0.00 minutes
Total time:
	user time   =      16.74 seconds =       0.28 minutes
	system time =       4.91 seconds =       0.08 minutes
	total time  =          2 seconds =       0.03 minutes

    Psi4 stopped on: Sunday, 10 August 2025 05:02PM
    Psi4 wall time for execution: 0:00:02.12

*** Psi4 exiting successfully. Buy a developer a beer!
