                               Psi4 1.9.1 release

  ==> Input File <==

--------------------------------------------------------------------------
molecule {
0 3
O           0.000000           0.000000           0.000000
O           0.000000           0.000000           0.745644
}

set {
basis              cc-pvtz
reference          uks
maxiter            500
DAMPING_PERCENTAGE 1
E_CONVERGENCE      1.0E-8
D_CONVERGENCE      1.0E-8
DIIS_MAX_VECS      400
MBIS_MAXITER       8000
guess              read
}

E, wfn = energy('b3lyp', restart_file='last_wfn', return_wfn=True)
properties('b3lyp','MBIS_CHARGES', wfn=wfn)
wfn.to_file('last_wfn')
--------------------------------------------------------------------------

    Molecular point group: d2h
  Charge       = 0
  Multiplicity = 3
  Basis Set: CC-PVTZ
    Blend: CC-PVTZ
  Basis Set: (CC-PVTZ AUX)
    Blend: CC-PVTZ-JKFIT
  @DF-UKS Final Energy:  -149.26785775078110
    Total Energy =                       -149.2678577507811042
 Dipole X            :          0.0000000            0.0000000            0.0000000
 Dipole Y            :          0.0000000            0.0000000            0.0000000
 Dipole Z            :          0.0000000            0.0000000            0.0000000
 Magnitude           :                                                    0.0000000
    Molecular point group: d2h

    Geometry (in Angstrom), charge = 0, multiplicity = 3:

       Center              X                  Y                   Z               Mass
    ------------   -----------------  -----------------  -----------------  -----------------
         O            0.000000000000     0.000000000000    -0.372822000000    15.994914619570
         O            0.000000000000     0.000000000000     0.372822000000    15.994914619570

  Charge       = 0
  Multiplicity = 3
  Basis Set: CC-PVTZ
    Blend: CC-PVTZ
  Basis Set: (CC-PVTZ AUX)
    Blend: CC-PVTZ-JKFIT

    Orbital Energies [Eh]
    ---------------------

    Alpha Occupied:

       1Ag   -19.277247     1B1u  -19.254453     2Ag    -1.820340
       1B3u   -0.881223     1B2u   -0.881223     2B1u   -0.706936
       3Ag    -0.667704     1B3g   -0.048320     1B2g   -0.048320

    Alpha Virtual:

       3B1u    0.338513     2B2u    0.396034     2B3u    0.396034
       4Ag     0.467619     5Ag     0.654383     2B3g    0.661070
       2B2g    0.661070     6Ag     1.092221     1B1g    1.092222
       4B1u    1.145742     5B1u    1.519845     3B3u    1.665331
       3B2u    1.665331     1Au     1.807201     6B1u    1.807201
       7Ag     2.008641     3B3g    2.242276     3B2g    2.242276
       4B3u    3.242499     4B2u    3.242499     7B1u    3.313939
       8Ag     4.059133     4B2g    4.125567     4B3g    4.125567
       8B1u    4.484076     5B2u    4.489970     5B3u    4.489970
       9Ag     4.656438     2B1g    4.656438     6B2u    5.211957
       6B3u    5.211957     5B3g    5.560612     5B2g    5.560612
      10Ag     5.619935     6B2g    5.748672     6B3g    5.748672
      11Ag     5.993417     3B1g    5.993417     9B1u    6.000538
       2Au     6.000539    12Ag     6.141373    10B1u    6.770238
       7B2u    7.116835     7B3u    7.116835     3Au     7.307893
      11B1u    7.307893    12B1u    8.986670     7B2g    9.881741
       7B3g    9.881741    13Ag    11.079838    13B1u   32.742277

    Beta Occupied:

       1Ag   -19.253012     1B1u  -19.229806     2Ag    -1.791658
       1B2u   -0.802737     1B3u   -0.802737     2B1u   -0.624372
       3Ag    -0.613421

    Beta Virtual:

       1B3g    0.128791     1B2g    0.128791     3B1u    0.353146
       2B2u    0.420306     2B3u    0.420306     4Ag     0.477458
       5Ag     0.681118     2B3g    0.720415     2B2g    0.720415
       6Ag     1.129868     1B1g    1.129868     4B1u    1.183333
       5B1u    1.563413     3B3u    1.711127     3B2u    1.711127
       1Au     1.877871     6B1u    1.877871     7Ag     2.024215
       3B3g    2.287354     3B2g    2.287354     4B3u    3.294267
       4B2u    3.294267     7B1u    3.346455     8Ag     4.084045
       4B2g    4.190793     4B3g    4.190793     8B1u    4.538362
       5B2u    4.539258     5B3u    4.539258     9Ag     4.688115
       2B1g    4.688115     6B2u    5.257988     6B3u    5.257988
       5B3g    5.633587     5B2g    5.633587    10Ag     5.650776
       6B2g    5.792726     6B3g    5.792726    11Ag     6.079230
       3B1g    6.079231     9B1u    6.088301     2Au     6.088301
      12Ag     6.170622    10B1u    6.804643     7B2u    7.156437
       7B3u    7.156437    11B1u    7.368009     3Au     7.368010
      12B1u    9.014813     7B2g    9.933148     7B3g    9.933148
      13Ag    11.124075    13B1u   32.772377

    Final Occupation by Irrep:
             Ag   B1g   B2g   B3g    Au   B1u   B2u   B3u
    DOCC [     3,    0,    0,    0,    0,    2,    1,    1 ]
    SOCC [     0,    0,    1,    1,    0,    0,    0,    0 ]
    NA   [     3,    0,    1,    1,    0,    2,    1,    1 ]
    NB   [     3,    0,    0,    0,    0,    2,    1,    1 ]

  @DF-UKS Final Energy:  -149.26785775088402

   => Energetics <=

    Nuclear Repulsion Energy =             45.4202561582739150
    One-Electron Energy =                -292.3594086771656180
    Two-Electron Energy =                 112.0657077281866520
    DFT Exchange-Correlation Energy =     -14.3944129601789612
    Empirical Dispersion Energy =           0.0000000000000000
    VV10 Nonlocal Energy =                  0.0000000000000000
    Total Energy =                       -149.2678577508840192

  UHF NO Occupations:
  HONO-2 :    2B1u 1.9996450
  HONO-1 :    1B2g 1.0000000
  HONO-0 :    1B3g 1.0000000
  LUNO+0 :    3B1u 0.0003550
  LUNO+1 :    2B3u 0.0002544
  LUNO+2 :    2B2u 0.0002544
  LUNO+3 :    4 Ag 0.0001310

Computation Completed

Properties will be evaluated at   0.000000,   0.000000,   0.000000 [a0]

Properties computed using the B3LYP density matrix

 Multipole Moments:

 ------------------------------------------------------------------------------------
     Multipole            Electronic (a.u.)      Nuclear  (a.u.)        Total (a.u.)
 ------------------------------------------------------------------------------------

 L = 1.  Multiply by 2.5417464519 to convert [e a0] to [Debye]
 Dipole X            :          0.0000000            0.0000000            0.0000000
 Dipole Y            :          0.0000000            0.0000000            0.0000000
 Dipole Z            :          0.0000000            0.0000000            0.0000000
 Magnitude           :                                                    0.0000000

 L = 2.  Multiply by 1.3450342976 to convert [e a0^2] to [Debye ang]
 Quadrupole XX       :         -6.7303238            0.0000000           -6.7303238
 Quadrupole XY       :          0.0000000            0.0000000            0.0000000
 Quadrupole XZ       :          0.0000000            0.0000000            0.0000000
 Quadrupole YY       :         -6.7303238            0.0000000           -6.7303238
 Quadrupole YZ       :          0.0000000            0.0000000            0.0000000
 Quadrupole ZZ       :        -16.2551095            7.9418336           -8.3132760
 Traceless XX        :          3.1749286           -2.6472779            0.5276507
 Traceless YY        :          3.1749286           -2.6472779            0.5276507
 Traceless ZZ        :         -6.3498571            5.2945557           -1.0553014

 ------------------------------------------------------------------------------------
  ==> Computing MBIS Charges <==

  Electron Count from Grid (Expected Number): 16.00000 (16.00000)
  Difference:  0.00000

  MBIS Charges: (a.u.)
   Center  Symbol  Z      Pop.       Charge
      1       O    8    8.000000   -0.000000
      2       O    8    8.000000   -0.000000

  MBIS Dipoles: [e a0]
   Center  Symbol  Z        X           Y           Z
      1       O    8    0.000000   -0.000000    0.255837
      2       O    8   -0.000000    0.000000   -0.255837

  MBIS Quadrupoles: [e a0^2]
   Center  Symbol  Z      XX        XY        XZ        YY        YZ        ZZ
      1       O    8   -3.3652    0.0000   -0.0000   -3.3652   -0.0000   -3.7961
      2       O    8   -3.3652    0.0000   -0.0000   -3.3652    0.0000   -3.7961

  MBIS Octupoles: [e a0^3]
   Center  Symbol  Z      XXX       XXY       XXZ       XYY       XYZ       XZZ       YYY       YYZ       YZZ       ZZZ
      1       O    8   -0.0000   -0.0000    0.4848   -0.0000   -0.0000   -0.0000    0.0000    0.4848    0.0000    0.3560
      2       O    8   -0.0000   -0.0000   -0.4848   -0.0000    0.0000    0.0000    0.0000   -0.4848    0.0000   -0.3560

  MBIS Radial Moments:
   Center  Symbol  Z      [a0^2]      [a0^3]      [a0^4]
      1       O    8   10.526472   19.601502   44.413496
      2       O    8   10.526472   19.601502   44.413496

  MBIS Valence Widths: [a0]
   Center  Symbol  Z     Width
      1       O    8    0.368990
      2       O    8    0.368990

*** tstop() called on Mac.lan at Sun Aug 10 17:01:30 2025
Module time:
	user time   =       3.77 seconds =       0.06 minutes
	system time =       2.43 seconds =       0.04 minutes
	total time  =          0 seconds =       0.00 minutes
Total time:
	user time   =      17.61 seconds =       0.29 minutes
	system time =       4.70 seconds =       0.08 minutes
	total time  =          2 seconds =       0.03 minutes

    Psi4 stopped on: Sunday, 10 August 2025 05:01PM
    Psi4 wall time for execution: 0:00:02.18

*** Psi4 exiting successfully. Buy a developer a beer!
