                               Psi4 1.9.1 release

  ==> Input File <==

--------------------------------------------------------------------------
molecule {
0 1
H           0.000000           0.000000           0.000000
H           0.000000           0.000000           0.609453
}

set {
basis              cc-pvtz
reference          uks
maxiter            500
DAMPING_PERCENTAGE 1
E_CONVERGENCE      1.0E-8
D_CONVERGENCE      1.0E-8
DIIS_MAX_VECS      400
MBIS_MAXITER       8000
guess              read
}

E, wfn = energy('b3lyp', restart_file='last_wfn', return_wfn=True)
properties('b3lyp','MBIS_CHARGES', wfn=wfn)
wfn.to_file('last_wfn')
--------------------------------------------------------------------------

    Molecular point group: d2h
  Charge       = 0
  Multiplicity = 1
  Basis Set: CC-PVTZ
    Blend: CC-PVTZ
  Basis Set: (CC-PVTZ AUX)
    Blend: CC-PVTZ-JKFIT
  @DF-UKS Final Energy:    -1.16389275155798
    Total Energy =                         -1.1638927515579778
 Dipole X            :          0.0000000            0.0000000            0.0000000
 Dipole Y            :          0.0000000            0.0000000            0.0000000
 Dipole Z            :          0.0000000            0.0000000            0.0000000
 Magnitude           :                                                    0.0000000
    Molecular point group: d2h

    Geometry (in Angstrom), charge = 0, multiplicity = 1:

       Center              X                  Y                   Z               Mass
    ------------   -----------------  -----------------  -----------------  -----------------
         H            0.000000000000     0.000000000000    -0.304726500000     1.007825032230
         H            0.000000000000     0.000000000000     0.304726500000     1.007825032230

  Charge       = 0
  Multiplicity = 1
  Basis Set: CC-PVTZ
    Blend: CC-PVTZ
  Basis Set: (CC-PVTZ AUX)
    Blend: CC-PVTZ-JKFIT

    Orbital Energies [Eh]
    ---------------------

    Alpha Occupied:

       1Ag    -0.464414

    Alpha Virtual:

       1B1u    0.081950     2Ag     0.186335     2B1u    0.520583
       1B2u    0.525208     1B3u    0.525208     3Ag     0.944937
       1B3g    0.957654     1B2g    0.957654     3B1u    1.399397
       4Ag     2.014312     4B1u    2.176662     5Ag     2.906641
       1B1g    2.906641     2B2u    3.133590     2B3u    3.133590
       6Ag     3.399693     2B3g    3.473743     2B2g    3.473743
       5B1u    3.931898     1Au     3.931898     3B3u    3.945704
       3B2u    3.945704     6B1u    4.746069     3B3g    5.958400
       3B2g    5.958400     7Ag     6.013810     7B1u    7.541315

    Beta Occupied:

       1Ag    -0.464414

    Beta Virtual:

       1B1u    0.081950     2Ag     0.186335     2B1u    0.520583
       1B2u    0.525208     1B3u    0.525208     3Ag     0.944937
       1B3g    0.957654     1B2g    0.957654     3B1u    1.399397
       4Ag     2.014312     4B1u    2.176662     5Ag     2.906641
       1B1g    2.906641     2B2u    3.133590     2B3u    3.133590
       6Ag     3.399693     2B3g    3.473743     2B2g    3.473743
       5B1u    3.931898     1Au     3.931898     3B3u    3.945704
       3B2u    3.945704     6B1u    4.746069     3B3g    5.958400
       3B2g    5.958400     7Ag     6.013810     7B1u    7.541315

    Final Occupation by Irrep:
             Ag   B1g   B2g   B3g    Au   B1u   B2u   B3u
    DOCC [     1,    0,    0,    0,    0,    0,    0,    0 ]
    SOCC [     0,    0,    0,    0,    0,    0,    0,    0 ]
    NA   [     1,    0,    0,    0,    0,    0,    0,    0 ]
    NB   [     1,    0,    0,    0,    0,    0,    0,    0 ]

  @DF-UKS Final Energy:    -1.16389275169169

   => Energetics <=

    Nuclear Repulsion Energy =              0.8682822312303000
    One-Electron Energy =                  -2.6929227556039974
    Two-Electron Energy =                   1.2727949102931313
    DFT Exchange-Correlation Energy =      -0.6120471376111256
    Empirical Dispersion Energy =           0.0000000000000000
    VV10 Nonlocal Energy =                  0.0000000000000000
    Total Energy =                         -1.1638927516916917

  UHF NO Occupations:
  HONO-0 :    1 Ag 2.0000000
  LUNO+0 :    2 Ag 0.0000000
  LUNO+1 :    3 Ag 0.0000000
  LUNO+2 :    4 Ag 0.0000000
  LUNO+3 :    3B3u 0.0000000

Computation Completed

Properties will be evaluated at   0.000000,   0.000000,   0.000000 [a0]

Properties computed using the B3LYP density matrix

 Multipole Moments:

 ------------------------------------------------------------------------------------
     Multipole            Electronic (a.u.)      Nuclear  (a.u.)        Total (a.u.)
 ------------------------------------------------------------------------------------

 L = 1.  Multiply by 2.5417464519 to convert [e a0] to [Debye]
 Dipole X            :          0.0000000            0.0000000            0.0000000
 Dipole Y            :          0.0000000            0.0000000            0.0000000
 Dipole Z            :          0.0000000            0.0000000            0.0000000
 Magnitude           :                                                    0.0000000

 L = 2.  Multiply by 1.3450342976 to convert [e a0^2] to [Debye ang]
 Quadrupole XX       :         -1.4192738            0.0000000           -1.4192738
 Quadrupole XY       :          0.0000000            0.0000000            0.0000000
 Quadrupole XZ       :          0.0000000            0.0000000            0.0000000
 Quadrupole YY       :         -1.4192738            0.0000000           -1.4192738
 Quadrupole YZ       :          0.0000000            0.0000000            0.0000000
 Quadrupole ZZ       :         -1.7873503            0.6632056           -1.1241447
 Traceless XX        :          0.1226922           -0.2210685           -0.0983764
 Traceless YY        :          0.1226922           -0.2210685           -0.0983764
 Traceless ZZ        :         -0.2453843            0.4421371            0.1967527

 ------------------------------------------------------------------------------------
  ==> Computing MBIS Charges <==

  Electron Count from Grid (Expected Number):  2.00000 ( 2.00000)
  Difference:  0.00000

  MBIS Charges: (a.u.)
   Center  Symbol  Z      Pop.       Charge
      1       H    1    1.000000   -0.000000
      2       H    1    1.000000   -0.000000

  MBIS Dipoles: [e a0]
   Center  Symbol  Z        X           Y           Z
      1       H    1   -0.000000    0.000000   -0.061195
      2       H    1    0.000000   -0.000000    0.061195

  MBIS Quadrupoles: [e a0^2]
   Center  Symbol  Z      XX        XY        XZ        YY        YZ        ZZ
      1       H    1   -0.7096   -0.0000   -0.0000   -0.7096   -0.0000   -0.6326
      2       H    1   -0.7096    0.0000    0.0000   -0.7096   -0.0000   -0.6326

  MBIS Octupoles: [e a0^3]
   Center  Symbol  Z      XXX       XXY       XXZ       XYY       XYZ       XZZ       YYY       YYZ       YZZ       ZZZ
      1       H    1   -0.0000   -0.0000   -0.0224    0.0000   -0.0000    0.0000    0.0000   -0.0224    0.0000   -0.0204
      2       H    1    0.0000    0.0000    0.0224    0.0000   -0.0000    0.0000   -0.0000    0.0224    0.0000    0.0204

  MBIS Radial Moments:
   Center  Symbol  Z      [a0^2]      [a0^3]      [a0^4]
      1       H    1    2.051825    4.374054   11.414355
      2       H    1    2.051825    4.374054   11.414355

  MBIS Valence Widths: [a0]
   Center  Symbol  Z     Width
      1       H    1    0.409973
      2       H    1    0.409973

*** tstop() called on Mac.lan at Sun Aug 10 16:59:21 2025
Module time:
	user time   =       0.45 seconds =       0.01 minutes
	system time =       1.32 seconds =       0.02 minutes
	total time  =          0 seconds =       0.00 minutes
Total time:
	user time   =       1.38 seconds =       0.02 minutes
	system time =       3.50 seconds =       0.06 minutes
	total time  =          1 seconds =       0.02 minutes

    Psi4 stopped on: Sunday, 10 August 2025 04:59PM
    Psi4 wall time for execution: 0:00:00.77

*** Psi4 exiting successfully. Buy a developer a beer!
