                               Psi4 1.9.1 release

  ==> Input File <==

--------------------------------------------------------------------------
molecule {
0 3
C           0.000000           0.000000           0.000000
C           0.000000           0.000000           1.378855
}

set {
basis              cc-pvtz
reference          uks
maxiter            500
DAMPING_PERCENTAGE 1
E_CONVERGENCE      1.0E-8
D_CONVERGENCE      1.0E-8
DIIS_MAX_VECS      400
MBIS_MAXITER       8000
guess              read
}

E, wfn = energy('b3lyp', restart_file='last_wfn', return_wfn=True)
properties('b3lyp','MBIS_CHARGES', wfn=wfn)
wfn.to_file('last_wfn')
--------------------------------------------------------------------------

    Molecular point group: d2h
  Charge       = 0
  Multiplicity = 3
  Basis Set: CC-PVTZ
    Blend: CC-PVTZ
  Basis Set: (CC-PVTZ AUX)
    Blend: CC-PVTZ-JKFIT
  @DF-UKS Final Energy:   -75.93817731562689
    Total Energy =                        -75.9381773156269020
 Dipole X            :          0.0000000            0.0000000            0.0000000
 Dipole Y            :          0.0000000            0.0000000            0.0000000
 Dipole Z            :          0.0000000           -0.0000000           -0.0000000
 Magnitude           :                                                    0.0000000
    Molecular point group: d2h

    Geometry (in Angstrom), charge = 0, multiplicity = 3:

       Center              X                  Y                   Z               Mass
    ------------   -----------------  -----------------  -----------------  -----------------
         C            0.000000000000     0.000000000000    -0.689427500000    12.000000000000
         C            0.000000000000     0.000000000000     0.689427500000    12.000000000000

  Charge       = 0
  Multiplicity = 3
  Basis Set: CC-PVTZ
    Blend: CC-PVTZ
  Basis Set: (CC-PVTZ AUX)
    Blend: CC-PVTZ-JKFIT

    Orbital Energies [Eh]
    ---------------------

    Alpha Occupied:

       1Ag   -10.304565     1B1u  -10.303806     2Ag    -0.806369
       2B1u   -0.466936     1B3u   -0.359737     3Ag    -0.358276
       1B2u   -0.326017

    Alpha Virtual:

       1B2g   -0.070677     1B3g   -0.043226     3B1u    0.172242
       2B3u    0.260364     4Ag     0.272002     2B2u    0.275486
       5Ag     0.322424     2B2g    0.351338     2B3g    0.364723
       4B1u    0.408363     1B1g    0.547322     6Ag     0.548000
       5B1u    0.599890     3B3u    0.682417     3B2u    0.706226
       1Au     0.824265     6B1u    0.824649     3B2g    1.103773
       3B3g    1.119687     7Ag     1.133938     7B1u    1.213784
       4B3u    1.882839     4B2u    1.907896     8Ag     1.983066
       4B2g    2.083203     4B3g    2.110659     2B1g    2.368590
       9Ag     2.369249     8B1u    2.374827     5B3u    2.384571
       5B2u    2.413122     6B3u    2.503176     6B2u    2.503321
      10Ag     2.614883     5B2g    2.787975     5B3g    2.788081
       3B1g    2.883191    11Ag     2.883552     9B1u    2.972053
       2Au     2.972387     6B2g    3.007945     6B3g    3.028394
      10B1u    3.069931     7B3u    3.293733     3Au     3.313798
      11B1u    3.314728     7B2u    3.318711    12Ag     3.704896
      12B1u    3.729566    13Ag     4.235045     7B2g    4.250594
       7B3g    4.277606    13B1u    9.821823

    Beta Occupied:

       1Ag   -10.288536     1B1u  -10.288032     2Ag    -0.739869
       2B1u   -0.379131     1B2u   -0.308076

    Beta Virtual:

       1B3u   -0.214434     3Ag    -0.208309     1B3g   -0.021729
       1B2g    0.004934     3B1u    0.185935     2B2u    0.281334
       2B3u    0.291207     4Ag     0.295386     5Ag     0.356551
       2B3g    0.371788     2B2g    0.381207     4B1u    0.475995
       1B1g    0.574637     6Ag     0.577146     5B1u    0.617350
       3B2u    0.734009     3B3u    0.739705     1Au     0.848303
       6B1u    0.850293     3B3g    1.141134     3B2g    1.143982
       7Ag     1.174846     7B1u    1.254946     4B2u    1.920978
       4B3u    1.934185     8Ag     2.031468     4B3g    2.122711
       4B2g    2.132903     2B1g    2.409808     9Ag     2.412363
       8B1u    2.422947     5B2u    2.444625     5B3u    2.456794
       6B2u    2.536823     6B3u    2.537715    10Ag     2.684821
       5B3g    2.820969     5B2g    2.821875     3B1g    2.927426
      11Ag     2.932040     2Au     3.013351     9B1u    3.017937
       6B3g    3.076013     6B2g    3.086196    10B1u    3.127615
       3Au     3.356145    11B1u    3.358790     7B2u    3.362930
       7B3u    3.370615    12Ag     3.747408    12B1u    3.789759
      13Ag     4.279398     7B3g    4.307655     7B2g    4.316671
      13B1u    9.850047

    Final Occupation by Irrep:
             Ag   B1g   B2g   B3g    Au   B1u   B2u   B3u
    DOCC [     2,    0,    0,    0,    0,    2,    1,    0 ]
    SOCC [     1,    0,    0,    0,    0,    0,    0,    1 ]
    NA   [     3,    0,    0,    0,    0,    2,    1,    1 ]
    NB   [     2,    0,    0,    0,    0,    2,    1,    0 ]

  @DF-UKS Final Energy:   -75.93817731557195

   => Energetics <=

    Nuclear Repulsion Energy =             13.8160862339549908
    One-Electron Energy =                -128.4332322252676590
    Two-Electron Energy =                  47.2003909106245345
    DFT Exchange-Correlation Energy =      -8.5214222348838220
    Empirical Dispersion Energy =           0.0000000000000000
    VV10 Nonlocal Energy =                  0.0000000000000000
    Total Energy =                        -75.9381773155719486

  UHF NO Occupations:
  HONO-2 :    2B1u 1.9983700
  HONO-1 :    1B3u 1.0000000
  HONO-0 :    3 Ag 1.0000000
  LUNO+0 :    3B1u 0.0016300
  LUNO+1 :    4 Ag 0.0003830
  LUNO+2 :    2B2u 0.0001618
  LUNO+3 :    4B1u 0.0000006

Computation Completed

Properties will be evaluated at   0.000000,   0.000000,   0.000000 [a0]

Properties computed using the B3LYP density matrix

 Multipole Moments:

 ------------------------------------------------------------------------------------
     Multipole            Electronic (a.u.)      Nuclear  (a.u.)        Total (a.u.)
 ------------------------------------------------------------------------------------

 L = 1.  Multiply by 2.5417464519 to convert [e a0] to [Debye]
 Dipole X            :          0.0000000            0.0000000            0.0000000
 Dipole Y            :          0.0000000            0.0000000            0.0000000
 Dipole Z            :          0.0000000           -0.0000000           -0.0000000
 Magnitude           :                                                    0.0000000

 L = 2.  Multiply by 1.3450342976 to convert [e a0^2] to [Debye ang]
 Quadrupole XX       :         -8.0194642            0.0000000           -8.0194642
 Quadrupole XY       :          0.0000000            0.0000000            0.0000000
 Quadrupole XZ       :          0.0000000            0.0000000            0.0000000
 Quadrupole YY       :         -9.5146533            0.0000000           -9.5146533
 Quadrupole YZ       :          0.0000000            0.0000000            0.0000000
 Quadrupole ZZ       :        -29.4350292           20.3683658           -9.0666635
 Traceless XX        :          7.6369180           -6.7894553            0.8474628
 Traceless YY        :          6.1417289           -6.7894553           -0.6477263
 Traceless ZZ        :        -13.7786470           13.5789105           -0.1997365

 ------------------------------------------------------------------------------------
  ==> Computing MBIS Charges <==

  Electron Count from Grid (Expected Number): 12.00000 (12.00000)
  Difference:  0.00000

  MBIS Charges: (a.u.)
   Center  Symbol  Z      Pop.       Charge
      1       C    6    6.000000   -0.000000
      2       C    6    6.000000   -0.000000

  MBIS Dipoles: [e a0]
   Center  Symbol  Z        X           Y           Z
      1       C    6   -0.000000    0.000000   -0.076283
      2       C    6   -0.000000    0.000000    0.076283

  MBIS Quadrupoles: [e a0^2]
   Center  Symbol  Z      XX        XY        XZ        YY        YZ        ZZ
      1       C    6   -4.0097    0.0000   -0.0000   -4.7573   -0.0000   -4.7321
      2       C    6   -4.0097    0.0000    0.0000   -4.7573    0.0000   -4.7321

  MBIS Octupoles: [e a0^3]
   Center  Symbol  Z      XXX       XXY       XXZ       XYY       XYZ       XZZ       YYY       YYZ       YZZ       ZZZ
      1       C    6   -0.0000    0.0000   -0.0125    0.0000   -0.0000   -0.0000    0.0000   -0.2486    0.0000   -0.2984
      2       C    6   -0.0000    0.0000    0.0125    0.0000    0.0000   -0.0000    0.0000    0.2486    0.0000    0.2984

  MBIS Radial Moments:
   Center  Symbol  Z      [a0^2]      [a0^3]      [a0^4]
      1       C    6   13.499158   32.903554   95.659499
      2       C    6   13.499158   32.903554   95.659499

  MBIS Valence Widths: [a0]
   Center  Symbol  Z     Width
      1       C    6    0.514323
      2       C    6    0.514323

*** tstop() called on Mac.lan at Sun Aug 10 17:04:08 2025
Module time:
	user time   =       4.01 seconds =       0.07 minutes
	system time =       1.66 seconds =       0.03 minutes
	total time  =          1 seconds =       0.02 minutes
Total time:
	user time   =      16.72 seconds =       0.28 minutes
	system time =       3.87 seconds =       0.06 minutes
	total time  =          2 seconds =       0.03 minutes

    Psi4 stopped on: Sunday, 10 August 2025 05:04PM
    Psi4 wall time for execution: 0:00:02.00

*** Psi4 exiting successfully. Buy a developer a beer!
