                               Psi4 1.9.1 release

  ==> Input File <==

--------------------------------------------------------------------------
molecule {
0 1
N           0.000000           0.000000           0.000000
N           0.000000           0.000000           0.875289
}

set {
basis              cc-pvtz
reference          uks
maxiter            500
DAMPING_PERCENTAGE 1
E_CONVERGENCE      1.0E-8
D_CONVERGENCE      1.0E-8
DIIS_MAX_VECS      400
MBIS_MAXITER       8000
guess              read
}

E, wfn = energy('b3lyp', restart_file='last_wfn', return_wfn=True)
properties('b3lyp','MBIS_CHARGES', wfn=wfn)
wfn.to_file('last_wfn')
--------------------------------------------------------------------------

    Molecular point group: d2h
  Charge       = 0
  Multiplicity = 1
  Basis Set: CC-PVTZ
    Blend: CC-PVTZ
  Basis Set: (CC-PVTZ AUX)
    Blend: CC-PVTZ-JKFIT
  @DF-UKS Final Energy:  -109.33879182698433
    Total Energy =                       -109.3387918269843340
 Dipole X            :          0.0000000            0.0000000            0.0000000
 Dipole Y            :          0.0000000            0.0000000            0.0000000
 Dipole Z            :          0.0000000            0.0000000            0.0000000
 Magnitude           :                                                    0.0000000
    Molecular point group: d2h

    Geometry (in Angstrom), charge = 0, multiplicity = 1:

       Center              X                  Y                   Z               Mass
    ------------   -----------------  -----------------  -----------------  -----------------
         N            0.000000000000     0.000000000000    -0.437644500000    14.003074004430
         N            0.000000000000     0.000000000000     0.437644500000    14.003074004430

  Charge       = 0
  Multiplicity = 1
  Basis Set: CC-PVTZ
    Blend: CC-PVTZ
  Basis Set: (CC-PVTZ AUX)
    Blend: CC-PVTZ-JKFIT

    Orbital Energies [Eh]
    ---------------------

    Alpha Occupied:

       1Ag   -14.355892     1B1u  -14.341162     2Ag    -1.244742
       1B2u   -0.558795     1B3u   -0.558795     2B1u   -0.490195
       3Ag    -0.445194

    Alpha Virtual:

       1B3g    0.094048     1B2g    0.094048     3B1u    0.307898
       2B2u    0.356775     2B3u    0.356775     4Ag     0.386513
       5Ag     0.510384     2B2g    0.576870     2B3g    0.576870
       4B1u    0.811366     6Ag     0.827488     1B1g    0.827488
       5B1u    1.211762     3B3u    1.244322     3B2u    1.244322
       6B1u    1.351031     1Au     1.351031     7Ag     1.602613
       3B2g    1.697724     3B3g    1.697724     7B1u    2.545328
       4B2u    2.661127     4B3u    2.661127     8Ag     3.115202
       4B2g    3.320883     4B3g    3.320883     8B1u    3.385643
       5B3u    3.495004     5B2u    3.495004     9Ag     3.552883
       2B1g    3.552884     6B2u    3.861326     6B3u    3.861326
      10Ag     4.162657     5B3g    4.281660     5B2g    4.281660
       6B2g    4.309058     6B3g    4.309058    11Ag     4.426297
       3B1g    4.426298     9B1u    4.458607     2Au     4.458608
      12Ag     4.811214    10B1u    5.129216     7B2u    5.358643
       7B3u    5.358643    11B1u    5.518565     3Au     5.518565
      12B1u    6.648730     7B2g    7.395721     7B3g    7.395721
      13Ag     8.274063    13B1u   24.242202

    Beta Occupied:

       1Ag   -14.355892     1B1u  -14.341162     2Ag    -1.244742
       1B2u   -0.558795     1B3u   -0.558795     2B1u   -0.490195
       3Ag    -0.445194

    Beta Virtual:

       1B3g    0.094048     1B2g    0.094048     3B1u    0.307898
       2B2u    0.356775     2B3u    0.356775     4Ag     0.386513
       5Ag     0.510384     2B2g    0.576870     2B3g    0.576870
       4B1u    0.811366     6Ag     0.827488     1B1g    0.827488
       5B1u    1.211762     3B3u    1.244322     3B2u    1.244322
       6B1u    1.351031     1Au     1.351031     7Ag     1.602613
       3B2g    1.697724     3B3g    1.697724     7B1u    2.545328
       4B2u    2.661127     4B3u    2.661127     8Ag     3.115202
       4B2g    3.320883     4B3g    3.320883     8B1u    3.385643
       5B3u    3.495004     5B2u    3.495004     9Ag     3.552883
       2B1g    3.552884     6B2u    3.861326     6B3u    3.861326
      10Ag     4.162657     5B3g    4.281660     5B2g    4.281660
       6B2g    4.309058     6B3g    4.309058    11Ag     4.426297
       3B1g    4.426298     9B1u    4.458607     2Au     4.458608
      12Ag     4.811214    10B1u    5.129216     7B2u    5.358643
       7B3u    5.358643    11B1u    5.518565     3Au     5.518565
      12B1u    6.648730     7B2g    7.395721     7B3g    7.395721
      13Ag     8.274063    13B1u   24.242202

    Final Occupation by Irrep:
             Ag   B1g   B2g   B3g    Au   B1u   B2u   B3u
    DOCC [     3,    0,    0,    0,    0,    2,    1,    1 ]
    SOCC [     0,    0,    0,    0,    0,    0,    0,    0 ]
    NA   [     3,    0,    0,    0,    0,    2,    1,    1 ]
    NB   [     3,    0,    0,    0,    0,    2,    1,    1 ]

  @DF-UKS Final Energy:  -109.33879182736463

   => Energetics <=

    Nuclear Repulsion Energy =             29.6241393674889117
    One-Electron Energy =                -205.7575585477378013
    Two-Electron Energy =                  78.1758829127707315
    DFT Exchange-Correlation Energy =     -11.3812555598864673
    Empirical Dispersion Energy =           0.0000000000000000
    VV10 Nonlocal Energy =                  0.0000000000000000
    Total Energy =                       -109.3387918273646306

  UHF NO Occupations:
  HONO-2 :    1B2u 2.0000000
  HONO-1 :    2B1u 2.0000000
  HONO-0 :    3 Ag 2.0000000
  LUNO+0 :    4 Ag 0.0000000
  LUNO+1 :    3B1u 0.0000000
  LUNO+2 :    4B1u 0.0000000
  LUNO+3 :    5B1u 0.0000000

Computation Completed

Properties will be evaluated at   0.000000,   0.000000,   0.000000 [a0]

Properties computed using the B3LYP density matrix

 Multipole Moments:

 ------------------------------------------------------------------------------------
     Multipole            Electronic (a.u.)      Nuclear  (a.u.)        Total (a.u.)
 ------------------------------------------------------------------------------------

 L = 1.  Multiply by 2.5417464519 to convert [e a0] to [Debye]
 Dipole X            :          0.0000000            0.0000000            0.0000000
 Dipole Y            :          0.0000000            0.0000000            0.0000000
 Dipole Z            :          0.0000000            0.0000000            0.0000000
 Magnitude           :                                                    0.0000000

 L = 2.  Multiply by 1.3450342976 to convert [e a0^2] to [Debye ang]
 Quadrupole XX       :         -6.9621637            0.0000000           -6.9621637
 Quadrupole XY       :          0.0000000            0.0000000            0.0000000
 Quadrupole XZ       :          0.0000000            0.0000000            0.0000000
 Quadrupole YY       :         -6.9621637            0.0000000           -6.9621637
 Quadrupole YZ       :          0.0000000            0.0000000            0.0000000
 Quadrupole ZZ       :        -18.1294826            9.5756601           -8.5538225
 Traceless XX        :          3.7224396           -3.1918867            0.5305529
 Traceless YY        :          3.7224396           -3.1918867            0.5305529
 Traceless ZZ        :         -7.4448792            6.3837734           -1.0611059

 ------------------------------------------------------------------------------------
  ==> Computing MBIS Charges <==

  Electron Count from Grid (Expected Number): 14.00000 (14.00000)
  Difference: -0.00000

  MBIS Charges: (a.u.)
   Center  Symbol  Z      Pop.       Charge
      1       N    7    7.000000    0.000000
      2       N    7    7.000000    0.000000

  MBIS Dipoles: [e a0]
   Center  Symbol  Z        X           Y           Z
      1       N    7    0.000000   -0.000000    0.111199
      2       N    7    0.000000   -0.000000   -0.111199

  MBIS Quadrupoles: [e a0^2]
   Center  Symbol  Z      XX        XY        XZ        YY        YZ        ZZ
      1       N    7   -3.4811   -0.0000    0.0000   -3.4811    0.0000   -4.0930
      2       N    7   -3.4811   -0.0000   -0.0000   -3.4811   -0.0000   -4.0930

  MBIS Octupoles: [e a0^3]
   Center  Symbol  Z      XXX       XXY       XXZ       XYY       XYZ       XZZ       YYY       YYZ       YZZ       ZZZ
      1       N    7    0.0000    0.0000    0.1727   -0.0000    0.0000   -0.0000    0.0000    0.1727   -0.0000    0.5433
      2       N    7    0.0000    0.0000   -0.1727   -0.0000   -0.0000   -0.0000   -0.0000   -0.1727    0.0000   -0.5433

  MBIS Radial Moments:
   Center  Symbol  Z      [a0^2]      [a0^3]      [a0^4]
      1       N    7   11.055146   22.226370   53.560218
      2       N    7   11.055146   22.226370   53.560218

  MBIS Valence Widths: [a0]
   Center  Symbol  Z     Width
      1       N    7    0.415149
      2       N    7    0.415149

*** tstop() called on Mac.lan at Sun Aug 10 17:06:00 2025
Module time:
	user time   =       4.10 seconds =       0.07 minutes
	system time =       2.21 seconds =       0.04 minutes
	total time  =          1 seconds =       0.02 minutes
Total time:
	user time   =      14.87 seconds =       0.25 minutes
	system time =       4.60 seconds =       0.08 minutes
	total time  =          2 seconds =       0.03 minutes

    Psi4 stopped on: Sunday, 10 August 2025 05:06PM
    Psi4 wall time for execution: 0:00:01.90

*** Psi4 exiting successfully. Buy a developer a beer!
