                               Psi4 1.9.1 release

  ==> Input File <==

--------------------------------------------------------------------------
molecule {
0 2
O           0.000000           0.000000           0.000000
H           0.000000           0.000000           1.426106
}

set {
basis              cc-pvtz
reference          uks
maxiter            500
DAMPING_PERCENTAGE 1
E_CONVERGENCE      1.0E-8
D_CONVERGENCE      1.0E-8
DIIS_MAX_VECS      400
MBIS_MAXITER       8000
guess              read
}

E, wfn = energy('b3lyp', restart_file='last_wfn', return_wfn=True)
properties('b3lyp','MBIS_CHARGES', wfn=wfn)
wfn.to_file('last_wfn')
--------------------------------------------------------------------------

    Molecular point group: c2v
  Charge       = 0
  Multiplicity = 2
  Basis Set: CC-PVTZ
    Blend: CC-PVTZ
  Basis Set: (CC-PVTZ AUX)
    Blend: CC-PVTZ-JKFIT
  @DF-UKS Final Energy:   -75.68984838353602
    Total Energy =                        -75.6898483835360167
 Dipole X            :          0.0000000            0.0000000            0.0000000
 Dipole Y            :          0.0000000            0.0000000            0.0000000
 Dipole Z            :         -0.5537281            1.2572791            0.7035509
 Magnitude           :                                                    0.7035509
    Molecular point group: c2v

    Geometry (in Angstrom), charge = 0, multiplicity = 2:

       Center              X                  Y                   Z               Mass
    ------------   -----------------  -----------------  -----------------  -----------------
         O            0.000000000000     0.000000000000    -0.084531396401    15.994914619570
         H            0.000000000000     0.000000000000     1.341574603599     1.007825032230

  Charge       = 0
  Multiplicity = 2
  Basis Set: CC-PVTZ
    Blend: CC-PVTZ
  Basis Set: (CC-PVTZ AUX)
    Blend: CC-PVTZ-JKFIT

    Orbital Energies [Eh]
    ---------------------

    Alpha Occupied:

       1A1   -19.219409     2A1    -0.958005     3A1    -0.417733
       1B1    -0.408780     1B2    -0.334812

    Alpha Virtual:

       4A1    -0.087260     5A1     0.250145     2B1     0.496527
       2B2     0.523295     6A1     0.573529     3B1     0.672274
       3B2     0.689326     7A1     0.797522     8A1     1.045480
       1A2     1.437530     9A1     1.438304     4B1     1.520679
       4B2     1.558572    10A1     1.944855    11A1     2.357973
      12A1     3.114746     2A2     3.154475    13A1     3.154517
       5B1     3.214193     5B2     3.232179     6B1     3.576669
       6B2     3.620871     7B1     3.624128     7B2     3.641340
      14A1     3.782985    15A1     4.551240     8B1     5.077464
       8B2     5.077867     3A2     5.091001    16A1     5.091947
       9B1     5.293218     9B2     5.342258    17A1     5.703532
      18A1     6.116692     4A2     6.117091    10B1     6.273736
      10B2     6.333040    19A1     6.912489    20A1     7.483866

    Beta Occupied:

       1A1   -19.190721     2A1    -0.872668     3A1    -0.395310
       1B2    -0.306566

    Beta Virtual:

       1B1    -0.156380     4A1    -0.080873     5A1     0.240896
       2B2     0.524329     2B1     0.540407     6A1     0.590528
       3B2     0.686928     3B1     0.696884     7A1     0.812080
       8A1     1.064193     1A2     1.490573     9A1     1.496731
       4B2     1.567722     4B1     1.575618    10A1     1.958847
      11A1     2.336360    12A1     3.124100     2A2     3.133787
      13A1     3.133901     5B2     3.221712     5B1     3.225455
       6B1     3.594348     6B2     3.595446     7B2     3.655417
       7B1     3.684823    14A1     3.773045    15A1     4.567557
       3A2     5.142895    16A1     5.148370     8B2     5.148686
       8B1     5.151693     9B2     5.356645     9B1     5.362651
      17A1     5.738358     4A2     6.211535    18A1     6.226458
      10B2     6.356312    10B1     6.381150    19A1     6.952672
      20A1     7.539174

    Final Occupation by Irrep:
             A1    A2    B1    B2
    DOCC [     3,    0,    0,    1 ]
    SOCC [     0,    0,    1,    0 ]
    NA   [     3,    0,    1,    1 ]
    NB   [     3,    0,    0,    1 ]

  @DF-UKS Final Energy:   -75.68984838304577

   => Energetics <=

    Nuclear Repulsion Energy =              2.9685154437047458
    One-Electron Energy =                -110.1190582333792207
    Two-Electron Energy =                  38.5427952933337465
    DFT Exchange-Correlation Energy =      -7.0821008867050521
    Empirical Dispersion Energy =           0.0000000000000000
    VV10 Nonlocal Energy =                  0.0000000000000000
    Total Energy =                        -75.6898483830457707

  UHF NO Occupations:
  HONO-2 :    2 A1 1.9994559
  HONO-1 :    3 A1 1.9906195
  HONO-0 :    1 B1 1.0000000
  LUNO+0 :    4 A1 0.0093805
  LUNO+1 :    5 A1 0.0005441
  LUNO+2 :    2 B2 0.0001953
  LUNO+3 :    6 A1 0.0000006

Computation Completed

Properties will be evaluated at   0.000000,   0.000000,   0.000000 [a0]

Properties computed using the B3LYP density matrix

 Multipole Moments:

 ------------------------------------------------------------------------------------
     Multipole            Electronic (a.u.)      Nuclear  (a.u.)        Total (a.u.)
 ------------------------------------------------------------------------------------

 L = 1.  Multiply by 2.5417464519 to convert [e a0] to [Debye]
 Dipole X            :          0.0000000            0.0000000            0.0000000
 Dipole Y            :          0.0000000            0.0000000            0.0000000
 Dipole Z            :         -0.5537281            1.2572791            0.7035509
 Magnitude           :                                                    0.7035509

 L = 2.  Multiply by 1.3450342976 to convert [e a0^2] to [Debye ang]
 Quadrupole XX       :         -4.2982512            0.0000000           -4.2982512
 Quadrupole XY       :          0.0000000            0.0000000            0.0000000
 Quadrupole XZ       :          0.0000000            0.0000000            0.0000000
 Quadrupole YY       :         -5.1956783            0.0000000           -5.1956783
 Quadrupole YZ       :          0.0000000            0.0000000            0.0000000
 Quadrupole ZZ       :         -9.1673328            6.6314205           -2.5359123
 Traceless XX        :          1.9221695           -2.2104735           -0.2883040
 Traceless YY        :          1.0247425           -2.2104735           -1.1857310
 Traceless ZZ        :         -2.9469120            4.4209470            1.4740350

 ------------------------------------------------------------------------------------
  ==> Computing MBIS Charges <==

  Electron Count from Grid (Expected Number):  9.00000 ( 9.00000)
  Difference: -0.00000

  MBIS Charges: (a.u.)
   Center  Symbol  Z      Pop.       Charge
      1       O    8    8.283462   -0.283462
      2       H    1    0.716538    0.283462

  MBIS Dipoles: [e a0]
   Center  Symbol  Z        X           Y           Z
      1       O    8    0.000000   -0.000000   -0.129911
      2       H    1    0.000000   -0.000000    0.069547

  MBIS Quadrupoles: [e a0^2]
   Center  Symbol  Z      XX        XY        XZ        YY        YZ        ZZ
      1       O    8   -3.7363    0.0000    0.0000   -4.5949   -0.0000   -4.2030
      2       H    1   -0.5619    0.0000    0.0000   -0.6008   -0.0000   -0.5417

  MBIS Octupoles: [e a0^3]
   Center  Symbol  Z      XXX       XXY       XXZ       XYY       XYZ       XZZ       YYY       YYZ       YZZ       ZZZ
      1       O    8   -0.0000   -0.0000   -0.1786    0.0000    0.0000   -0.0000   -0.0000   -0.1577    0.0000   -0.6680
      2       H    1    0.0000    0.0000    0.0190    0.0000   -0.0000   -0.0000    0.0000    0.0598   -0.0000    0.1013

  MBIS Radial Moments:
   Center  Symbol  Z      [a0^2]      [a0^3]      [a0^4]
      1       O    8   12.534211   24.359625   56.569689
      2       H    1    1.704421    3.756117    9.889960

  MBIS Valence Widths: [a0]
   Center  Symbol  Z     Width
      1       O    8    0.398165
      2       H    1    0.447422

*** tstop() called on Mac.lan at Sun Aug 10 17:12:03 2025
Module time:
	user time   =       2.63 seconds =       0.04 minutes
	system time =       1.79 seconds =       0.03 minutes
	total time  =          1 seconds =       0.02 minutes
Total time:
	user time   =      13.07 seconds =       0.22 minutes
	system time =       3.94 seconds =       0.07 minutes
	total time  =          2 seconds =       0.03 minutes

    Psi4 stopped on: Sunday, 10 August 2025 05:12PM
    Psi4 wall time for execution: 0:00:01.66

*** Psi4 exiting successfully. Buy a developer a beer!
