                               Psi4 1.9.1 release

  ==> Input File <==

--------------------------------------------------------------------------
molecule {
0 2
O           0.000000           0.000000           0.000000
N           0.000000           0.000000           1.529495
}

set {
basis              cc-pvtz
reference          uks
maxiter            500
DAMPING_PERCENTAGE 1
E_CONVERGENCE      1.0E-8
D_CONVERGENCE      1.0E-8
DIIS_MAX_VECS      400
MBIS_MAXITER       8000
guess              read
}

E, wfn = energy('b3lyp', restart_file='last_wfn', return_wfn=True)
properties('b3lyp','MBIS_CHARGES', wfn=wfn)
wfn.to_file('last_wfn')
--------------------------------------------------------------------------

    Molecular point group: c2v
  Charge       = 0
  Multiplicity = 2
  Basis Set: CC-PVTZ
    Blend: CC-PVTZ
  Basis Set: (CC-PVTZ AUX)
    Blend: CC-PVTZ-JKFIT
  @DF-UKS Final Energy:  -129.81882410231495
    Total Energy =                       -129.8188241023149487
 Dipole X            :          0.0000000            0.0000000            0.0000000
 Dipole Y            :          0.0000000            0.0000000            0.0000000
 Dipole Z            :          0.2434371           -0.0057993            0.2376378
 Magnitude           :                                                    0.2376378
    Molecular point group: c2v

    Geometry (in Angstrom), charge = 0, multiplicity = 2:

       Center              X                  Y                   Z               Mass
    ------------   -----------------  -----------------  -----------------  -----------------
         O            0.000000000000     0.000000000000    -0.713968924479    15.994914619570
         N            0.000000000000     0.000000000000     0.815526075521    14.003074004430

  Charge       = 0
  Multiplicity = 2
  Basis Set: CC-PVTZ
    Blend: CC-PVTZ
  Basis Set: (CC-PVTZ AUX)
    Blend: CC-PVTZ-JKFIT

    Orbital Energies [Eh]
    ---------------------

    Alpha Occupied:

       1A1   -19.255920     2A1   -14.511998     3A1    -1.026851
       4A1    -0.764818     5A1    -0.446376     1B1    -0.441158
       1B2    -0.408339     2B1    -0.310698

    Alpha Virtual:

       2B2    -0.193039     6A1    -0.008482     7A1     0.398663
       3B1     0.416056     3B2     0.417460     8A1     0.487002
       9A1     0.576983     4B1     0.600906     4B2     0.618707
       1A2     0.941169    10A1     0.941666     5B2     0.977320
       5B1     0.981021    11A1     1.105024    12A1     1.451357
       2A2     1.472311    13A1     1.475694     6B1     1.783521
       6B2     1.787419    14A1     2.003075     7B1     2.720768
       7B2     2.724468    15A1     2.991776     8B1     3.460647
       8B2     3.482346    16A1     3.578015     3A2     3.761716
      17A1     3.762292     9B1     3.770060     9B2     3.770107
      10B1     3.912492    10B2     3.915357    18A1     4.219567
       4A2     4.282653    19A1     4.283755    11B1     4.464573
      11B2     4.465022    20A1     4.951575    12B1     5.083644
      12B2     5.084672    21A1     5.095276     5A2     5.142188
      22A1     5.145195    13B1     5.519186    13B2     5.524724
      23A1     6.043781     6A2     6.154783    24A1     6.163171
      14B1     6.467114    14B2     6.485574    25A1     7.298384
      26A1     8.113209

    Beta Occupied:

       1A1   -19.268772     2A1   -14.478812     3A1    -1.038380
       4A1    -0.697029     1B2    -0.439296     5A1    -0.435137
       1B1    -0.382397

    Beta Virtual:

       2B2    -0.159051     2B1    -0.135078     6A1     0.011153
       7A1     0.408809     3B2     0.456655     3B1     0.470086
       8A1     0.510474     9A1     0.582958     4B2     0.584914
       4B1     0.611280     5B2     0.995202     1A2     1.004979
      10A1     1.005051     5B1     1.012732    11A1     1.097181
      12A1     1.452753     2A2     1.454817    13A1     1.478310
       6B2     1.772746     6B1     1.800792    14A1     2.000958
       7B2     2.800346     7B1     2.818285    15A1     3.007280
       8B2     3.435745     8B1     3.480547    16A1     3.608193
       3A2     3.825788    17A1     3.825990     9B2     3.867482
       9B1     3.867567    10B2     3.925079    10B1     3.952710
      18A1     4.234019     4A2     4.413729    19A1     4.413752
      11B2     4.525175    11B1     4.543670    20A1     4.990941
      12B2     5.051758    12B1     5.051835    21A1     5.111820
       5A2     5.122183    22A1     5.139572    13B2     5.489922
      13B1     5.527879    23A1     6.030424     6A2     6.114801
      24A1     6.117552    14B2     6.427390    14B1     6.474588
      25A1     7.292375    26A1     8.097694

    Final Occupation by Irrep:
             A1    A2    B1    B2
    DOCC [     5,    0,    1,    1 ]
    SOCC [     0,    0,    1,    0 ]
    NA   [     5,    0,    2,    1 ]
    NB   [     5,    0,    1,    1 ]

  @DF-UKS Final Energy:  -129.81882409674742

   => Energetics <=

    Nuclear Repulsion Energy =             19.3749726527513992
    One-Electron Energy =                -215.6598299834143404
    Two-Electron Energy =                  78.7276957590813709
    DFT Exchange-Correlation Energy =     -12.2616625251658515
    Empirical Dispersion Energy =           0.0000000000000000
    VV10 Nonlocal Energy =                  0.0000000000000000
    Total Energy =                       -129.8188240967474201

  UHF NO Occupations:
  HONO-2 :    5 A1 1.9962522
  HONO-1 :    1 B2 1.7679721
  HONO-0 :    2 B1 1.0000000
  LUNO+0 :    2 B2 0.2320279
  LUNO+1 :    6 A1 0.0037478
  LUNO+2 :    3 B1 0.0006641
  LUNO+3 :    7 A1 0.0006135

Computation Completed

Properties will be evaluated at   0.000000,   0.000000,   0.000000 [a0]

Properties computed using the B3LYP density matrix

 Multipole Moments:

 ------------------------------------------------------------------------------------
     Multipole            Electronic (a.u.)      Nuclear  (a.u.)        Total (a.u.)
 ------------------------------------------------------------------------------------

 L = 1.  Multiply by 2.5417464519 to convert [e a0] to [Debye]
 Dipole X            :          0.0000000            0.0000000            0.0000000
 Dipole Y            :          0.0000000            0.0000000            0.0000000
 Dipole Z            :          0.2434389           -0.0057993            0.2376395
 Magnitude           :                                                    0.2376395

 L = 2.  Multiply by 1.3450342976 to convert [e a0^2] to [Debye ang]
 Quadrupole XX       :         -8.2536761            0.0000000           -8.2536761
 Quadrupole XY       :          0.0000000            0.0000000            0.0000000
 Quadrupole XZ       :          0.0000000            0.0000000            0.0000000
 Quadrupole YY       :         -7.4868850            0.0000000           -7.4868850
 Quadrupole YZ       :          0.0000000            0.0000000            0.0000000
 Quadrupole ZZ       :        -39.2280204           31.1882249           -8.0397955
 Traceless XX        :         10.0691844          -10.3960750           -0.3268906
 Traceless YY        :         10.8359755          -10.3960750            0.4399006
 Traceless ZZ        :        -20.9051599           20.7921499           -0.1130100

 ------------------------------------------------------------------------------------
  ==> Computing MBIS Charges <==

  Electron Count from Grid (Expected Number): 15.00000 (15.00000)
  Difference: -0.00000

  MBIS Charges: (a.u.)
   Center  Symbol  Z      Pop.       Charge
      1       O    8    8.119938   -0.119938
      2       N    7    6.880061    0.119939

  MBIS Dipoles: [e a0]
   Center  Symbol  Z        X           Y           Z
      1       O    8   -0.000000    0.000000   -0.023447
      2       N    7    0.000000    0.000000   -0.085577

  MBIS Quadrupoles: [e a0^2]
   Center  Symbol  Z      XX        XY        XZ        YY        YZ        ZZ
      1       O    8   -4.1659    0.0000    0.0000   -3.6979   -0.0000   -3.8745
      2       N    7   -4.0878   -0.0000    0.0000   -3.7890   -0.0000   -4.0314

  MBIS Octupoles: [e a0^3]
   Center  Symbol  Z      XXX       XXY       XXZ       XYY       XYZ       XZZ       YYY       YYZ       YZZ       ZZZ
      1       O    8   -0.0000   -0.0000    0.0229   -0.0000    0.0000   -0.0000   -0.0000   -0.0738   -0.0000   -0.2945
      2       N    7   -0.0000    0.0000   -0.0101   -0.0000   -0.0000    0.0000   -0.0000    0.0323   -0.0000    0.2482

  MBIS Radial Moments:
   Center  Symbol  Z      [a0^2]      [a0^3]      [a0^4]
      1       O    8   11.738245   22.290136   50.669226
      2       N    7   11.908143   25.024944   62.722720

  MBIS Valence Widths: [a0]
   Center  Symbol  Z     Width
      1       O    8    0.390057
      2       N    7    0.438798

*** tstop() called on Mac.lan at Sun Aug 10 17:21:22 2025
Module time:
	user time   =       3.29 seconds =       0.05 minutes
	system time =       2.16 seconds =       0.04 minutes
	total time  =          0 seconds =       0.00 minutes
Total time:
	user time   =      18.70 seconds =       0.31 minutes
	system time =       3.24 seconds =       0.05 minutes
	total time  =          2 seconds =       0.03 minutes

    Psi4 stopped on: Sunday, 10 August 2025 05:21PM
    Psi4 wall time for execution: 0:00:02.12

*** Psi4 exiting successfully. Buy a developer a beer!
