                               Psi4 1.9.1 release

  ==> Input File <==

--------------------------------------------------------------------------
molecule {
0 1
H           0.000000           0.000000           0.000000
H           0.000000           0.000000           0.541230
}

set {
basis              cc-pvtz
reference          uks
maxiter            500
DAMPING_PERCENTAGE 1
E_CONVERGENCE      1.0E-8
D_CONVERGENCE      1.0E-8
DIIS_MAX_VECS      400
MBIS_MAXITER       8000
guess              read
}

E, wfn = energy('b3lyp', restart_file='last_wfn', return_wfn=True)
properties('b3lyp','MBIS_CHARGES', wfn=wfn)
wfn.to_file('last_wfn')
--------------------------------------------------------------------------

    Molecular point group: d2h
  Charge       = 0
  Multiplicity = 1
  Basis Set: CC-PVTZ
    Blend: CC-PVTZ
  Basis Set: (CC-PVTZ AUX)
    Blend: CC-PVTZ-JKFIT
  @DF-UKS Final Energy:    -1.13605996759411
    Total Energy =                         -1.1360599675941072
 Dipole X            :          0.0000000            0.0000000            0.0000000
 Dipole Y            :          0.0000000            0.0000000            0.0000000
 Dipole Z            :          0.0000000            0.0000000            0.0000000
 Magnitude           :                                                    0.0000000
    Molecular point group: d2h

    Geometry (in Angstrom), charge = 0, multiplicity = 1:

       Center              X                  Y                   Z               Mass
    ------------   -----------------  -----------------  -----------------  -----------------
         H            0.000000000000     0.000000000000    -0.270615000000     1.007825032230
         H            0.000000000000     0.000000000000     0.270615000000     1.007825032230

  Charge       = 0
  Multiplicity = 1
  Basis Set: CC-PVTZ
    Blend: CC-PVTZ
  Basis Set: (CC-PVTZ AUX)
    Blend: CC-PVTZ-JKFIT

    Orbital Energies [Eh]
    ---------------------

    Alpha Occupied:

       1Ag    -0.482223

    Alpha Virtual:

       1B1u    0.092073     2Ag     0.181508     1B2u    0.533520
       1B3u    0.533520     2B1u    0.538291     3Ag     0.958165
       1B3g    0.963691     1B2g    0.963691     3B1u    1.403856
       4Ag     1.961678     4B1u    2.395684     5Ag     2.930231
       1B1g    2.930231     2B3u    3.154955     2B2u    3.154955
       2B3g    3.400526     2B2g    3.400526     6Ag     3.421630
       1Au     4.001323     5B1u    4.001323     3B3u    4.019311
       3B2u    4.019311     6B1u    4.851059     7Ag     6.271218
       3B3g    6.306573     3B2g    6.306573     7B1u    8.481914

    Beta Occupied:

       1Ag    -0.482223

    Beta Virtual:

       1B1u    0.092073     2Ag     0.181508     1B2u    0.533520
       1B3u    0.533520     2B1u    0.538291     3Ag     0.958165
       1B3g    0.963691     1B2g    0.963691     3B1u    1.403856
       4Ag     1.961678     4B1u    2.395684     5Ag     2.930231
       1B1g    2.930231     2B3u    3.154955     2B2u    3.154955
       2B3g    3.400526     2B2g    3.400526     6Ag     3.421630
       1Au     4.001323     5B1u    4.001323     3B3u    4.019311
       3B2u    4.019311     6B1u    4.851059     7Ag     6.271218
       3B3g    6.306573     3B2g    6.306573     7B1u    8.481914

    Final Occupation by Irrep:
             Ag   B1g   B2g   B3g    Au   B1u   B2u   B3u
    DOCC [     1,    0,    0,    0,    0,    0,    0,    0 ]
    SOCC [     0,    0,    0,    0,    0,    0,    0,    0 ]
    NA   [     1,    0,    0,    0,    0,    0,    0,    0 ]
    NB   [     1,    0,    0,    0,    0,    0,    0,    0 ]

  @DF-UKS Final Energy:    -1.13605996770555

   => Energetics <=

    Nuclear Repulsion Energy =              0.9777307441753044
    One-Electron Energy =                  -2.8041632809560575
    Two-Electron Energy =                   1.3252574838988540
    DFT Exchange-Correlation Energy =      -0.6348849148236501
    Empirical Dispersion Energy =           0.0000000000000000
    VV10 Nonlocal Energy =                  0.0000000000000000
    Total Energy =                         -1.1360599677055494

  UHF NO Occupations:
  HONO-0 :    1 Ag 2.0000000
  LUNO+0 :    2 Ag 0.0000000
  LUNO+1 :    3 Ag 0.0000000
  LUNO+2 :    3B3u 0.0000000
  LUNO+3 :    2B3u 0.0000000

Computation Completed

Properties will be evaluated at   0.000000,   0.000000,   0.000000 [a0]

Properties computed using the B3LYP density matrix

 Multipole Moments:

 ------------------------------------------------------------------------------------
     Multipole            Electronic (a.u.)      Nuclear  (a.u.)        Total (a.u.)
 ------------------------------------------------------------------------------------

 L = 1.  Multiply by 2.5417464519 to convert [e a0] to [Debye]
 Dipole X            :          0.0000000            0.0000000            0.0000000
 Dipole Y            :          0.0000000            0.0000000            0.0000000
 Dipole Z            :          0.0000000            0.0000000            0.0000000
 Magnitude           :                                                    0.0000000

 L = 2.  Multiply by 1.3450342976 to convert [e a0^2] to [Debye ang]
 Quadrupole XX       :         -1.3414962            0.0000000           -1.3414962
 Quadrupole XY       :          0.0000000            0.0000000            0.0000000
 Quadrupole XZ       :          0.0000000            0.0000000            0.0000000
 Quadrupole YY       :         -1.3414962            0.0000000           -1.3414962
 Quadrupole YZ       :          0.0000000            0.0000000            0.0000000
 Quadrupole ZZ       :         -1.6305305            0.5230359           -1.1074947
 Traceless XX        :          0.0963448           -0.1743453           -0.0780005
 Traceless YY        :          0.0963448           -0.1743453           -0.0780005
 Traceless ZZ        :         -0.1926896            0.3486906            0.1560010

 ------------------------------------------------------------------------------------
  ==> Computing MBIS Charges <==

  Electron Count from Grid (Expected Number):  2.00000 ( 2.00000)
  Difference:  0.00000

  MBIS Charges: (a.u.)
   Center  Symbol  Z      Pop.       Charge
      1       H    1    1.000000   -0.000000
      2       H    1    1.000000   -0.000000

  MBIS Dipoles: [e a0]
   Center  Symbol  Z        X           Y           Z
      1       H    1   -0.000000   -0.000000   -0.048523
      2       H    1    0.000000   -0.000000    0.048523

  MBIS Quadrupoles: [e a0^2]
   Center  Symbol  Z      XX        XY        XZ        YY        YZ        ZZ
      1       H    1   -0.6707   -0.0000   -0.0000   -0.6707    0.0000   -0.6034
      2       H    1   -0.6707   -0.0000    0.0000   -0.6707    0.0000   -0.6034

  MBIS Octupoles: [e a0^3]
   Center  Symbol  Z      XXX       XXY       XXZ       XYY       XYZ       XZZ       YYY       YYZ       YZZ       ZZZ
      1       H    1    0.0000    0.0000   -0.0124    0.0000   -0.0000    0.0000   -0.0000   -0.0124    0.0000   -0.0029
      2       H    1    0.0000    0.0000    0.0124   -0.0000    0.0000    0.0000   -0.0000    0.0124    0.0000    0.0029

  MBIS Radial Moments:
   Center  Symbol  Z      [a0^2]      [a0^3]      [a0^4]
      1       H    1    1.944871    4.059999   10.410507
      2       H    1    1.944871    4.059999   10.410507

  MBIS Valence Widths: [a0]
   Center  Symbol  Z     Width
      1       H    1    0.398337
      2       H    1    0.398337

*** tstop() called on Mac.lan at Sun Aug 10 16:59:27 2025
Module time:
	user time   =       0.53 seconds =       0.01 minutes
	system time =       1.35 seconds =       0.02 minutes
	total time  =          0 seconds =       0.00 minutes
Total time:
	user time   =       1.21 seconds =       0.02 minutes
	system time =       3.54 seconds =       0.06 minutes
	total time  =          1 seconds =       0.02 minutes

    Psi4 stopped on: Sunday, 10 August 2025 04:59PM
    Psi4 wall time for execution: 0:00:00.65

*** Psi4 exiting successfully. Buy a developer a beer!
