                               Psi4 1.9.1 release

  ==> Input File <==

--------------------------------------------------------------------------
molecule {
0 2
C           0.000000           0.000000           0.000000
H           0.000000           0.000000           1.561714
}

set {
basis              cc-pvtz
reference          uks
maxiter            500
DAMPING_PERCENTAGE 1
E_CONVERGENCE      1.0E-8
D_CONVERGENCE      1.0E-8
DIIS_MAX_VECS      400
MBIS_MAXITER       8000
guess              read
}

E, wfn = energy('b3lyp', restart_file='last_wfn', return_wfn=True)
properties('b3lyp','MBIS_CHARGES', wfn=wfn)
wfn.to_file('last_wfn')
--------------------------------------------------------------------------

    Molecular point group: c2v
  Charge       = 0
  Multiplicity = 2
  Basis Set: CC-PVTZ
    Blend: CC-PVTZ
  Basis Set: (CC-PVTZ AUX)
    Blend: CC-PVTZ-JKFIT
  @DF-UKS Final Energy:   -38.45056894910624
    Total Energy =                        -38.4505689491062412
 Dipole X            :          0.0000000            0.0000000            0.0000000
 Dipole Y            :          0.0000000            0.0000000            0.0000000
 Dipole Z            :         -1.1397709            1.3506263            0.2108554
 Magnitude           :                                                    0.2108554
    Molecular point group: c2v

    Geometry (in Angstrom), charge = 0, multiplicity = 2:

       Center              X                  Y                   Z               Mass
    ------------   -----------------  -----------------  -----------------  -----------------
         C            0.000000000000     0.000000000000    -0.120999049302    12.000000000000
         H            0.000000000000     0.000000000000     1.440714950698     1.007825032230

  Charge       = 0
  Multiplicity = 2
  Basis Set: CC-PVTZ
    Blend: CC-PVTZ
  Basis Set: (CC-PVTZ AUX)
    Blend: CC-PVTZ-JKFIT

    Orbital Energies [Eh]
    ---------------------

    Alpha Occupied:

       1A1   -10.325256     2A1    -0.597210     3A1    -0.312213
       1B1    -0.270928

    Alpha Virtual:

       1B2    -0.156397     4A1    -0.022121     5A1     0.257649
       2B1     0.283450     2B2     0.302700     6A1     0.312630
       7A1     0.446492     3B1     0.538152     3B2     0.540150
       1A2     0.650993     8A1     0.656711     9A1     0.824038
       4B1     0.910056     4B2     0.911568    10A1     1.187649
       5B1     1.887860     5B2     1.914815    11A1     2.071038
      12A1     2.436592     6B1     2.538782     6B2     2.541841
      13A1     2.587250     2A2     2.600273    14A1     2.605288
       7B1     2.630629     7B2     2.633250     3A2     2.872985
      15A1     2.885572     8B1     2.951932     8B2     2.969243
      16A1     3.197684     4A2     3.271056    17A1     3.271831
      18A1     3.589358     9B2     3.605432     9B1     3.607035
      10B2     3.896360    10B1     3.897278    19A1     4.089343
      20A1     5.282648

    Beta Occupied:

       1A1   -10.309388     2A1    -0.544339     3A1    -0.301068

    Beta Virtual:

       1B2    -0.139759     1B1    -0.092149     4A1    -0.012603
       5A1     0.256413     2B2     0.309986     6A1     0.321588
       2B1     0.338851     7A1     0.468623     3B2     0.539730
       3B1     0.556559     8A1     0.693863     1A2     0.694588
       9A1     0.835547     4B2     0.912181     4B1     0.931738
      10A1     1.191733     5B2     1.925610     5B1     1.969290
      11A1     2.082881    12A1     2.431780     6B2     2.545820
       6B1     2.576491    13A1     2.601876     2A2     2.637190
      14A1     2.643302     7B2     2.689506     7B1     2.690157
      15A1     2.949662     3A2     2.950429     8B2     2.977344
       8B1     3.021219    16A1     3.220819     4A2     3.269775
      17A1     3.270634     9B2     3.596911     9B1     3.603884
      18A1     3.610177    10B2     3.890484    10B1     3.902381
      19A1     4.084383    20A1     5.292806

    Final Occupation by Irrep:
             A1    A2    B1    B2
    DOCC [     3,    0,    0,    0 ]
    SOCC [     0,    0,    1,    0 ]
    NA   [     3,    0,    1,    0 ]
    NB   [     3,    0,    0,    0 ]

  @DF-UKS Final Energy:   -38.45056894988967

   => Energetics <=

    Nuclear Repulsion Energy =              2.0330632010854743
    One-Electron Energy =                 -55.0845368022499144
    Two-Electron Energy =                  19.0605258618509907
    DFT Exchange-Correlation Energy =      -4.4596212105762261
    Empirical Dispersion Energy =           0.0000000000000000
    VV10 Nonlocal Energy =                  0.0000000000000000
    Total Energy =                        -38.4505689498896714

  UHF NO Occupations:
  HONO-2 :    2 A1 1.9991076
  HONO-1 :    3 A1 1.9980730
  HONO-0 :    1 B1 1.0000000
  LUNO+0 :    4 A1 0.0019270
  LUNO+1 :    5 A1 0.0008924
  LUNO+2 :    6 A1 0.0000007
  LUNO+3 :    7 A1 0.0000000

Computation Completed

Properties will be evaluated at   0.000000,   0.000000,   0.000000 [a0]

Properties computed using the B3LYP density matrix

 Multipole Moments:

 ------------------------------------------------------------------------------------
     Multipole            Electronic (a.u.)      Nuclear  (a.u.)        Total (a.u.)
 ------------------------------------------------------------------------------------

 L = 1.  Multiply by 2.5417464519 to convert [e a0] to [Debye]
 Dipole X            :          0.0000000            0.0000000            0.0000000
 Dipole Y            :          0.0000000            0.0000000            0.0000000
 Dipole Z            :         -1.1397709            1.3506263            0.2108554
 Magnitude           :                                                    0.2108554

 L = 2.  Multiply by 1.3450342976 to convert [e a0^2] to [Debye ang]
 Quadrupole XX       :         -5.9770997            0.0000000           -5.9770997
 Quadrupole XY       :          0.0000000            0.0000000            0.0000000
 Quadrupole XZ       :          0.0000000            0.0000000            0.0000000
 Quadrupole YY       :         -4.5272832            0.0000000           -4.5272832
 Quadrupole YZ       :          0.0000000            0.0000000            0.0000000
 Quadrupole ZZ       :        -13.5630280            7.7260137           -5.8370143
 Traceless XX        :          2.0453706           -2.5753379           -0.5299673
 Traceless YY        :          3.4951871           -2.5753379            0.9198492
 Traceless ZZ        :         -5.5405577            5.1506758           -0.3898819

 ------------------------------------------------------------------------------------
  ==> Computing MBIS Charges <==

  Electron Count from Grid (Expected Number):  7.00000 ( 7.00000)
  Difference: -0.00000

  MBIS Charges: (a.u.)
   Center  Symbol  Z      Pop.       Charge
      1       C    6    5.981964    0.018036
      2       H    1    1.018036   -0.018036

  MBIS Dipoles: [e a0]
   Center  Symbol  Z        X           Y           Z
      1       C    6    0.000000   -0.000000    0.173995
      2       H    1   -0.000000    0.000000    0.090088

  MBIS Quadrupoles: [e a0^2]
   Center  Symbol  Z      XX        XY        XZ        YY        YZ        ZZ
      1       C    6   -5.0339    0.0000    0.0000   -3.6560    0.0000   -5.2051
      2       H    1   -0.9432    0.0000   -0.0000   -0.8712    0.0000   -0.9101

  MBIS Octupoles: [e a0^3]
   Center  Symbol  Z      XXX       XXY       XXZ       XYY       XYZ       XZZ       YYY       YYZ       YZZ       ZZZ
      1       C    6    0.0000   -0.0000    0.1834   -0.0000   -0.0000   -0.0000   -0.0000    0.1260   -0.0000    0.1908
      2       H    1   -0.0000    0.0000    0.0313   -0.0000    0.0000   -0.0000    0.0000   -0.0513    0.0000    0.0808

  MBIS Radial Moments:
   Center  Symbol  Z      [a0^2]      [a0^3]      [a0^4]
      1       C    6   13.895014   34.493400   102.240833
      2       H    1    2.724607    6.361623   17.749972

  MBIS Valence Widths: [a0]
   Center  Symbol  Z     Width
      1       C    6    0.523877
      2       H    1    0.474977

*** tstop() called on Mac.lan at Sun Aug 10 17:09:44 2025
Module time:
	user time   =       2.47 seconds =       0.04 minutes
	system time =       1.71 seconds =       0.03 minutes
	total time  =          0 seconds =       0.00 minutes
Total time:
	user time   =      14.25 seconds =       0.24 minutes
	system time =       4.21 seconds =       0.07 minutes
	total time  =          2 seconds =       0.03 minutes

    Psi4 stopped on: Sunday, 10 August 2025 05:09PM
    Psi4 wall time for execution: 0:00:01.81

*** Psi4 exiting successfully. Buy a developer a beer!
