                               Psi4 1.9.1 release

  ==> Input File <==

--------------------------------------------------------------------------
molecule {
0 2
O           0.000000           0.000000           0.000000
H           0.000000           0.000000           0.978583
}

set {
basis              cc-pvtz
reference          uks
maxiter            500
DAMPING_PERCENTAGE 1
E_CONVERGENCE      1.0E-8
D_CONVERGENCE      1.0E-8
DIIS_MAX_VECS      400
MBIS_MAXITER       8000
guess              read
}

E, wfn = energy('b3lyp', restart_file='last_wfn', return_wfn=True)
properties('b3lyp','MBIS_CHARGES', wfn=wfn)
wfn.to_file('last_wfn')
--------------------------------------------------------------------------

    Molecular point group: c2v
  Charge       = 0
  Multiplicity = 2
  Basis Set: CC-PVTZ
    Blend: CC-PVTZ
  Basis Set: (CC-PVTZ AUX)
    Blend: CC-PVTZ-JKFIT
  @DF-UKS Final Energy:   -75.76412161954839
    Total Energy =                        -75.7641216195483906
 Dipole X            :          0.0000000            0.0000000            0.0000000
 Dipole Y            :          0.0000000            0.0000000            0.0000000
 Dipole Z            :         -0.1979091            0.8627353            0.6648261
 Magnitude           :                                                    0.6648261
    Molecular point group: c2v

    Geometry (in Angstrom), charge = 0, multiplicity = 2:

       Center              X                  Y                   Z               Mass
    ------------   -----------------  -----------------  -----------------  -----------------
         O            0.000000000000     0.000000000000    -0.058004795916    15.994914619570
         H            0.000000000000     0.000000000000     0.920578204084     1.007825032230

  Charge       = 0
  Multiplicity = 2
  Basis Set: CC-PVTZ
    Blend: CC-PVTZ
  Basis Set: (CC-PVTZ AUX)
    Blend: CC-PVTZ-JKFIT

    Orbital Energies [Eh]
    ---------------------

    Alpha Occupied:

       1A1   -19.196837     2A1    -1.016513     3A1    -0.476606
       1B1    -0.416717     1B2    -0.343872

    Alpha Virtual:

       4A1     0.027810     5A1     0.364311     6A1     0.516646
       2B1     0.526992     2B2     0.562463     3B1     0.688053
       3B2     0.703783     7A1     0.872864     8A1     1.242121
       1A2     1.419599     9A1     1.420052     4B1     1.725825
       4B2     1.764283    10A1     1.881413    11A1     2.420216
       2A2     3.182076    12A1     3.182234     5B1     3.307119
       5B2     3.344621     6B1     3.598897     6B2     3.626630
      13A1     3.667276     7B1     4.021945     7B2     4.056058
      14A1     4.292380    15A1     4.657375     8B1     5.069155
       8B2     5.069414     3A2     5.333041    16A1     5.333722
      17A1     6.137066     4A2     6.137492     9B1     6.246826
       9B2     6.304368    18A1     6.336536    10B1     6.543589
      10B2     6.588599    19A1     6.961902    20A1    10.086937

    Beta Occupied:

       1A1   -19.171484     2A1    -0.945962     3A1    -0.451200
       1B2    -0.318318

    Beta Virtual:

       1B1    -0.169686     4A1     0.034479     5A1     0.370462
       6A1     0.524637     2B2     0.572784     2B1     0.599590
       3B2     0.702873     3B1     0.702968     7A1     0.901654
       8A1     1.253424     1A2     1.471742     9A1     1.477707
       4B2     1.770378     4B1     1.775914    10A1     1.895269
      11A1     2.426895     2A2     3.187484    12A1     3.188137
       5B2     3.350994     5B1     3.365102     6B2     3.630196
       6B1     3.640811    13A1     3.671292     7B2     4.062001
       7B1     4.067868    14A1     4.314793    15A1     4.686731
       8B2     5.139294     8B1     5.142281     3A2     5.378332
      16A1     5.383367     4A2     6.229330    17A1     6.243704
       9B2     6.318274     9B1     6.339348    18A1     6.361272
      10B2     6.595155    10B1     6.599372    19A1     6.990286
      20A1    10.121924

    Final Occupation by Irrep:
             A1    A2    B1    B2
    DOCC [     3,    0,    0,    1 ]
    SOCC [     0,    0,    1,    0 ]
    NA   [     3,    0,    1,    1 ]
    NB   [     3,    0,    0,    1 ]

  @DF-UKS Final Energy:   -75.76412161949325

   => Energetics <=

    Nuclear Repulsion Energy =              4.3260691074339128
    One-Electron Energy =                -112.6752950628929710
    Two-Electron Energy =                  39.7750347028004754
    DFT Exchange-Correlation Energy =      -7.1899303668346626
    Empirical Dispersion Energy =           0.0000000000000000
    VV10 Nonlocal Energy =                  0.0000000000000000
    Total Energy =                        -75.7641216194932383

  UHF NO Occupations:
  HONO-2 :    2 A1 1.9997345
  HONO-1 :    3 A1 1.9993089
  HONO-0 :    1 B1 1.0000000
  LUNO+0 :    4 A1 0.0006911
  LUNO+1 :    5 A1 0.0002655
  LUNO+2 :    2 B2 0.0001552
  LUNO+3 :    6 A1 0.0000006

Computation Completed

Properties will be evaluated at   0.000000,   0.000000,   0.000000 [a0]

Properties computed using the B3LYP density matrix

 Multipole Moments:

 ------------------------------------------------------------------------------------
     Multipole            Electronic (a.u.)      Nuclear  (a.u.)        Total (a.u.)
 ------------------------------------------------------------------------------------

 L = 1.  Multiply by 2.5417464519 to convert [e a0] to [Debye]
 Dipole X            :          0.0000000            0.0000000            0.0000000
 Dipole Y            :          0.0000000            0.0000000            0.0000000
 Dipole Z            :         -0.1979091            0.8627353            0.6648261
 Magnitude           :                                                    0.6648261

 L = 2.  Multiply by 1.3450342976 to convert [e a0^2] to [Debye ang]
 Quadrupole XX       :         -4.0120257            0.0000000           -4.0120257
 Quadrupole XY       :          0.0000000            0.0000000            0.0000000
 Quadrupole XZ       :          0.0000000            0.0000000            0.0000000
 Quadrupole YY       :         -4.9066657            0.0000000           -4.9066657
 Quadrupole YZ       :          0.0000000            0.0000000            0.0000000
 Quadrupole ZZ       :         -6.3806157            3.1224701           -3.2581456
 Traceless XX        :          1.0877433           -1.0408234            0.0469200
 Traceless YY        :          0.1931033           -1.0408234           -0.8477201
 Traceless ZZ        :         -1.2808466            2.0816467            0.8008001

 ------------------------------------------------------------------------------------
  ==> Computing MBIS Charges <==

  Electron Count from Grid (Expected Number):  9.00000 ( 9.00000)
  Difference: -0.00000

  MBIS Charges: (a.u.)
   Center  Symbol  Z      Pop.       Charge
      1       O    8    8.378417   -0.378417
      2       H    1    0.621583    0.378417

  MBIS Dipoles: [e a0]
   Center  Symbol  Z        X           Y           Z
      1       O    8   -0.000000   -0.000000   -0.066295
      2       H    1    0.000000    0.000000    0.031331

  MBIS Quadrupoles: [e a0^2]
   Center  Symbol  Z      XX        XY        XZ        YY        YZ        ZZ
      1       O    8   -3.7091    0.0000    0.0000   -4.5660   -0.0000   -4.2106
      2       H    1   -0.3029   -0.0000    0.0000   -0.3407    0.0000   -0.3118

  MBIS Octupoles: [e a0^3]
   Center  Symbol  Z      XXX       XXY       XXZ       XYY       XYZ       XZZ       YYY       YYZ       YZZ       ZZZ
      1       O    8   -0.0000   -0.0000   -0.0534    0.0000   -0.0000    0.0000   -0.0000   -0.0699    0.0000   -0.3466
      2       H    1   -0.0000    0.0000   -0.0049    0.0000    0.0000    0.0000    0.0000    0.0102    0.0000    0.0200

  MBIS Radial Moments:
   Center  Symbol  Z      [a0^2]      [a0^3]      [a0^4]
      1       O    8   12.485726   23.983240   55.068622
      2       H    1    0.955332    1.702156    3.625358

  MBIS Valence Widths: [a0]
   Center  Symbol  Z     Width
      1       O    8    0.394521
      2       H    1    0.358769

*** tstop() called on Mac.lan at Sun Aug 10 17:10:21 2025
Module time:
	user time   =       2.66 seconds =       0.04 minutes
	system time =       2.35 seconds =       0.04 minutes
	total time  =          0 seconds =       0.00 minutes
Total time:
	user time   =      12.13 seconds =       0.20 minutes
	system time =       4.49 seconds =       0.07 minutes
	total time  =          2 seconds =       0.03 minutes

    Psi4 stopped on: Sunday, 10 August 2025 05:10PM
    Psi4 wall time for execution: 0:00:01.62

*** Psi4 exiting successfully. Buy a developer a beer!
