                               Psi4 1.9.1 release

  ==> Input File <==

--------------------------------------------------------------------------
molecule {
0 3
O           0.000000           0.000000           0.000000
O           0.000000           0.000000           0.944975
}

set {
basis              cc-pvtz
reference          uks
maxiter            500
DAMPING_PERCENTAGE 1
E_CONVERGENCE      1.0E-8
D_CONVERGENCE      1.0E-8
DIIS_MAX_VECS      400
MBIS_MAXITER       8000
guess              read
}

E, wfn = energy('b3lyp', restart_file='last_wfn', return_wfn=True)
properties('b3lyp','MBIS_CHARGES', wfn=wfn)
wfn.to_file('last_wfn')
--------------------------------------------------------------------------

    Molecular point group: d2h
  Charge       = 0
  Multiplicity = 3
  Basis Set: CC-PVTZ
    Blend: CC-PVTZ
  Basis Set: (CC-PVTZ AUX)
    Blend: CC-PVTZ-JKFIT
  @DF-UKS Final Energy:  -150.18803219263958
    Total Energy =                       -150.1880321926395823
 Dipole X            :          0.0000000            0.0000000            0.0000000
 Dipole Y            :          0.0000000            0.0000000            0.0000000
 Dipole Z            :          0.0000000            0.0000000            0.0000000
 Magnitude           :                                                    0.0000000
    Molecular point group: d2h

    Geometry (in Angstrom), charge = 0, multiplicity = 3:

       Center              X                  Y                   Z               Mass
    ------------   -----------------  -----------------  -----------------  -----------------
         O            0.000000000000     0.000000000000    -0.472487500000    15.994914619570
         O            0.000000000000     0.000000000000     0.472487500000    15.994914619570

  Charge       = 0
  Multiplicity = 3
  Basis Set: CC-PVTZ
    Blend: CC-PVTZ
  Basis Set: (CC-PVTZ AUX)
    Blend: CC-PVTZ-JKFIT

    Orbital Energies [Eh]
    ---------------------

    Alpha Occupied:

       1Ag   -19.254058     1B1u  -19.251799     2Ag    -1.569507
       2B1u   -0.757738     1B3u   -0.692399     1B2u   -0.692399
       3Ag    -0.598727     1B3g   -0.191766     1B2g   -0.191766

    Alpha Virtual:

       3B1u    0.337727     2B3u    0.457277     2B2u    0.457277
       4Ag     0.506698     2B2g    0.630147     2B3g    0.630147
       5Ag     0.649374     4B1u    0.884365     1B1g    1.136870
       6Ag     1.136870     5B1u    1.164806     3B3u    1.481650
       3B2u    1.481650     6B1u    1.716943     1Au     1.716944
       7Ag     2.174497     3B3g    2.261433     3B2g    2.261433
       7B1u    2.479240     4B2u    3.405021     4B3u    3.405021
       8Ag     3.768360     4B3g    3.904920     4B2g    3.904920
       8B1u    4.392435     2B1g    4.535336     9Ag     4.535336
       5B2u    4.671856     5B3u    4.671856     6B2u    4.818789
       6B3u    4.818789     5B3g    5.324740     5B2g    5.324740
      10Ag     5.368389     3B1g    5.985572    11Ag     5.985576
       6B3g    6.058734     6B2g    6.058734     9B1u    6.119804
       2Au     6.167458    10B1u    6.167462    11B1u    6.451599
       3Au     6.451599    12Ag     6.723899     7B2u    6.780668
       7B3u    6.780668    12B1u    7.696322     7B3g    8.497456
       7B2g    8.497456    13Ag     8.662529    13B1u   21.955796

    Beta Occupied:

       1Ag   -19.224936     1B1u  -19.222434     2Ag    -1.527249
       2B1u   -0.671640     1B3u   -0.599313     1B2u   -0.599313
       3Ag    -0.549962

    Beta Virtual:

       1B3g    0.001423     1B2g    0.001423     3B1u    0.352616
       2B3u    0.484493     2B2u    0.484493     4Ag     0.514027
       5Ag     0.674779     2B2g    0.678952     2B3g    0.678952
       4B1u    0.927431     1B1g    1.175994     6Ag     1.175994
       5B1u    1.200898     3B3u    1.520338     3B2u    1.520338
       6B1u    1.782934     1Au     1.782934     7Ag     2.197855
       3B3g    2.302021     3B2g    2.302021     7B1u    2.507662
       4B2u    3.476815     4B3u    3.476815     8Ag     3.792307
       4B3g    3.977485     4B2g    3.977485     8B1u    4.437432
       9Ag     4.569184     2B1g    4.569184     5B2u    4.734306
       5B3u    4.734306     6B2u    4.854777     6B3u    4.854777
      10Ag     5.396960     5B3g    5.400053     5B2g    5.400053
       3B1g    6.089226    11Ag     6.089230     6B3g    6.107532
       6B2g    6.107532     9B1u    6.157689     2Au     6.274343
      10B1u    6.274348    11B1u    6.502451     3Au     6.502452
      12Ag     6.772669     7B2u    6.828446     7B3u    6.828446
      12B1u    7.730202     7B3g    8.543707     7B2g    8.543707
      13Ag     8.697777    13B1u   21.995954

    Final Occupation by Irrep:
             Ag   B1g   B2g   B3g    Au   B1u   B2u   B3u
    DOCC [     3,    0,    0,    0,    0,    2,    1,    1 ]
    SOCC [     0,    0,    1,    1,    0,    0,    0,    0 ]
    NA   [     3,    0,    1,    1,    0,    2,    1,    1 ]
    NB   [     3,    0,    0,    0,    0,    2,    1,    1 ]

  @DF-UKS Final Energy:  -150.18803219244995

   => Energetics <=

    Nuclear Repulsion Energy =             35.8394047280404422
    One-Electron Energy =                -276.3856783835594229
    Two-Electron Energy =                 104.4023035896560714
    DFT Exchange-Correlation Energy =     -14.0440621265870416
    Empirical Dispersion Energy =           0.0000000000000000
    VV10 Nonlocal Energy =                  0.0000000000000000
    Total Energy =                       -150.1880321924499526

  UHF NO Occupations:
  HONO-2 :    1B2u 1.9992636
  HONO-1 :    1B3g 1.0000000
  HONO-0 :    1B2g 1.0000000
  LUNO+0 :    2B2u 0.0007364
  LUNO+1 :    2B3u 0.0007364
  LUNO+2 :    3B1u 0.0005930
  LUNO+3 :    4 Ag 0.0002323

Computation Completed

Properties will be evaluated at   0.000000,   0.000000,   0.000000 [a0]

Properties computed using the B3LYP density matrix

 Multipole Moments:

 ------------------------------------------------------------------------------------
     Multipole            Electronic (a.u.)      Nuclear  (a.u.)        Total (a.u.)
 ------------------------------------------------------------------------------------

 L = 1.  Multiply by 2.5417464519 to convert [e a0] to [Debye]
 Dipole X            :          0.0000000            0.0000000            0.0000000
 Dipole Y            :          0.0000000            0.0000000            0.0000000
 Dipole Z            :          0.0000000            0.0000000            0.0000000
 Magnitude           :                                                    0.0000000

 L = 2.  Multiply by 1.3450342976 to convert [e a0^2] to [Debye ang]
 Quadrupole XX       :         -6.9727856            0.0000000           -6.9727856
 Quadrupole XY       :          0.0000000            0.0000000            0.0000000
 Quadrupole XZ       :          0.0000000            0.0000000            0.0000000
 Quadrupole YY       :         -6.9727856            0.0000000           -6.9727856
 Quadrupole YZ       :          0.0000000            0.0000000            0.0000000
 Quadrupole ZZ       :        -20.8291334           12.7555258           -8.0736077
 Traceless XX        :          4.6187826           -4.2518419            0.3669407
 Traceless YY        :          4.6187826           -4.2518419            0.3669407
 Traceless ZZ        :         -9.2375652            8.5036838           -0.7338813

 ------------------------------------------------------------------------------------
  ==> Computing MBIS Charges <==

  Electron Count from Grid (Expected Number): 16.00000 (16.00000)
  Difference: -0.00000

  MBIS Charges: (a.u.)
   Center  Symbol  Z      Pop.       Charge
      1       O    8    8.000000    0.000000
      2       O    8    8.000000    0.000000

  MBIS Dipoles: [e a0]
   Center  Symbol  Z        X           Y           Z
      1       O    8   -0.000000    0.000000    0.196268
      2       O    8    0.000000   -0.000000   -0.196268

  MBIS Quadrupoles: [e a0^2]
   Center  Symbol  Z      XX        XY        XZ        YY        YZ        ZZ
      1       O    8   -3.4864   -0.0000    0.0000   -3.4864   -0.0000   -3.6863
      2       O    8   -3.4864   -0.0000   -0.0000   -3.4864    0.0000   -3.6863

  MBIS Octupoles: [e a0^3]
   Center  Symbol  Z      XXX       XXY       XXZ       XYY       XYZ       XZZ       YYY       YYZ       YZZ       ZZZ
      1       O    8    0.0000   -0.0000    0.2909    0.0000   -0.0000    0.0000   -0.0000    0.2909    0.0000    0.1341
      2       O    8   -0.0000   -0.0000   -0.2909    0.0000    0.0000   -0.0000    0.0000   -0.2909   -0.0000   -0.1341

  MBIS Radial Moments:
   Center  Symbol  Z      [a0^2]      [a0^3]      [a0^4]
      1       O    8   10.659105   19.553924   43.222098
      2       O    8   10.659105   19.553924   43.222098

  MBIS Valence Widths: [a0]
   Center  Symbol  Z     Width
      1       O    8    0.373636
      2       O    8    0.373636

*** tstop() called on Mac.lan at Sun Aug 10 17:01:06 2025
Module time:
	user time   =       3.49 seconds =       0.06 minutes
	system time =       2.52 seconds =       0.04 minutes
	total time  =          1 seconds =       0.02 minutes
Total time:
	user time   =      16.22 seconds =       0.27 minutes
	system time =       4.60 seconds =       0.08 minutes
	total time  =          2 seconds =       0.03 minutes

    Psi4 stopped on: Sunday, 10 August 2025 05:01PM
    Psi4 wall time for execution: 0:00:02.03

*** Psi4 exiting successfully. Buy a developer a beer!
