                               Psi4 1.9.1 release

  ==> Input File <==

--------------------------------------------------------------------------
molecule {
0 3
C           0.000000           0.000000           0.000000
C           0.000000           0.000000           0.996282
}

set {
basis              cc-pvtz
reference          uks
maxiter            500
DAMPING_PERCENTAGE 1
E_CONVERGENCE      1.0E-8
D_CONVERGENCE      1.0E-8
DIIS_MAX_VECS      400
MBIS_MAXITER       8000
guess              read
}

E, wfn = energy('b3lyp', restart_file='last_wfn', return_wfn=True)
properties('b3lyp','MBIS_CHARGES', wfn=wfn)
wfn.to_file('last_wfn')
--------------------------------------------------------------------------

    Molecular point group: d2h
  Charge       = 0
  Multiplicity = 3
  Basis Set: CC-PVTZ
    Blend: CC-PVTZ
  Basis Set: (CC-PVTZ AUX)
    Blend: CC-PVTZ-JKFIT
  @DF-UKS Final Energy:   -75.73224943408437
    Total Energy =                        -75.7322494340843662
 Dipole X            :          0.0000000            0.0000000            0.0000000
 Dipole Y            :          0.0000000            0.0000000            0.0000000
 Dipole Z            :          0.0000000            0.0000000            0.0000000
 Magnitude           :                                                    0.0000000
    Molecular point group: d2h

    Geometry (in Angstrom), charge = 0, multiplicity = 3:

       Center              X                  Y                   Z               Mass
    ------------   -----------------  -----------------  -----------------  -----------------
         C            0.000000000000     0.000000000000    -0.498141000000    12.000000000000
         C            0.000000000000     0.000000000000     0.498141000000    12.000000000000

  Charge       = 0
  Multiplicity = 3
  Basis Set: CC-PVTZ
    Blend: CC-PVTZ
  Basis Set: (CC-PVTZ AUX)
    Blend: CC-PVTZ-JKFIT

    Orbital Energies [Eh]
    ---------------------

    Alpha Occupied:

       1Ag   -10.240790     1B1u  -10.226034     2Ag    -0.920927
       1B3u   -0.457101     1B2u   -0.412962     2B1u   -0.400329
       3Ag    -0.365212

    Alpha Virtual:

       1B2g    0.048846     1B3g    0.073163     3B1u    0.186997
       2B3u    0.226637     2B2u    0.242132     4Ag     0.249893
       5Ag     0.342008     2B2g    0.392129     2B3g    0.409623
       1B1g    0.539527     6Ag     0.540386     4B1u    0.585109
       3B3u    0.824096     5B1u    0.837224     3B2u    0.846486
       1Au     0.904844     6B1u    0.906860     7Ag     1.090707
       3B2g    1.134503     3B3g    1.149570     4B3u    1.797461
       4B2u    1.830310     7B1u    1.842433     8Ag     2.154109
       4B2g    2.307791     4B3g    2.336504     8B1u    2.387562
       5B3u    2.400405     5B2u    2.400563     2B1g    2.425172
       9Ag     2.426923     6B3u    2.600823     6B2u    2.633167
      10Ag     2.808530     5B2g    2.920972     5B3g    2.942509
       2Au     2.967814     9B1u    2.967925     3B1g    2.986749
      11Ag     2.987710     6B2g    2.988295     6B3g    2.988822
      12Ag     3.467857    10B1u    3.528650     7B3u    3.725651
       7B2u    3.753961     3Au     3.896806    11B1u    3.897259
      12B1u    4.731472     7B2g    5.131438     7B3g    5.162931
      13Ag     5.953169    13B1u   17.421122

    Beta Occupied:

       1Ag   -10.221746     1B1u  -10.208092     2Ag    -0.839392
       1B2u   -0.390226     2B1u   -0.311560

    Beta Virtual:

       1B3u   -0.281631     3Ag    -0.212185     1B3g    0.094168
       1B2g    0.107917     3B1u    0.199962     2B2u    0.248678
       2B3u    0.256866     4Ag     0.269511     5Ag     0.380498
       2B3g    0.422554     2B2g    0.435392     1B1g    0.570388
       6Ag     0.573302     4B1u    0.611877     3B2u    0.872988
       3B3u    0.873896     5B1u    0.879831     1Au     0.928365
       6B1u    0.930170     7Ag     1.130450     3B3g    1.166547
       3B2g    1.170171     4B2u    1.846298     4B3u    1.859373
       7B1u    1.906826     8Ag     2.203190     4B3g    2.350937
       4B2g    2.359183     8B1u    2.433158     5B2u    2.439098
       5B3u    2.440274     2B1g    2.470266     9Ag     2.474417
       6B2u    2.677890     6B3u    2.690402    10Ag     2.882667
       5B3g    2.989053     5B2g    2.992168     2Au     3.016553
       9B1u    3.020752     6B3g    3.024460     6B2g    3.025748
       3B1g    3.037254    11Ag     3.041370    12Ag     3.509906
      10B1u    3.586547     7B2u    3.790729     7B3u    3.793662
       3Au     3.939267    11B1u    3.943188    12B1u    4.790476
       7B3g    5.196999     7B2g    5.208277    13Ag     5.997882
      13B1u   17.447554

    Final Occupation by Irrep:
             Ag   B1g   B2g   B3g    Au   B1u   B2u   B3u
    DOCC [     2,    0,    0,    0,    0,    2,    1,    0 ]
    SOCC [     1,    0,    0,    0,    0,    0,    0,    1 ]
    NA   [     3,    0,    0,    0,    0,    2,    1,    1 ]
    NB   [     2,    0,    0,    0,    0,    2,    1,    0 ]

  @DF-UKS Final Energy:   -75.73224943357384

   => Energetics <=

    Nuclear Repulsion Energy =             19.1214732215577499
    One-Electron Energy =                -138.3682803830108128
    Two-Electron Energy =                  52.3228330671468669
    DFT Exchange-Correlation Energy =      -8.8082753392676363
    Empirical Dispersion Energy =           0.0000000000000000
    VV10 Nonlocal Energy =                  0.0000000000000000
    Total Energy =                        -75.7322494335738412

  UHF NO Occupations:
  HONO-2 :    2B1u 1.9983431
  HONO-1 :    3 Ag 1.0000000
  HONO-0 :    1B3u 1.0000000
  LUNO+0 :    3B1u 0.0016569
  LUNO+1 :    4 Ag 0.0003939
  LUNO+2 :    2B2u 0.0001179
  LUNO+3 :    4B1u 0.0000007

Computation Completed

Properties will be evaluated at   0.000000,   0.000000,   0.000000 [a0]

Properties computed using the B3LYP density matrix

 Multipole Moments:

 ------------------------------------------------------------------------------------
     Multipole            Electronic (a.u.)      Nuclear  (a.u.)        Total (a.u.)
 ------------------------------------------------------------------------------------

 L = 1.  Multiply by 2.5417464519 to convert [e a0] to [Debye]
 Dipole X            :          0.0000000            0.0000000            0.0000000
 Dipole Y            :          0.0000000            0.0000000            0.0000000
 Dipole Z            :          0.0000000            0.0000000            0.0000000
 Magnitude           :                                                    0.0000000

 L = 2.  Multiply by 1.3450342976 to convert [e a0^2] to [Debye ang]
 Quadrupole XX       :         -7.1733582            0.0000000           -7.1733582
 Quadrupole XY       :          0.0000000            0.0000000            0.0000000
 Quadrupole XZ       :          0.0000000            0.0000000            0.0000000
 Quadrupole YY       :         -8.3452099            0.0000000           -8.3452099
 Quadrupole YZ       :          0.0000000            0.0000000            0.0000000
 Quadrupole ZZ       :        -19.9336713           10.6336793           -9.2999920
 Traceless XX        :          4.6440549           -3.5445598            1.0994952
 Traceless YY        :          3.4722032           -3.5445598           -0.0723566
 Traceless ZZ        :         -8.1162581            7.0891195           -1.0271386

 ------------------------------------------------------------------------------------
  ==> Computing MBIS Charges <==

  Electron Count from Grid (Expected Number): 12.00000 (12.00000)
  Difference:  0.00000

  MBIS Charges: (a.u.)
   Center  Symbol  Z      Pop.       Charge
      1       C    6    6.000000   -0.000000
      2       C    6    6.000000   -0.000000

  MBIS Dipoles: [e a0]
   Center  Symbol  Z        X           Y           Z
      1       C    6   -0.000000    0.000000    0.042522
      2       C    6   -0.000000    0.000000   -0.042522

  MBIS Quadrupoles: [e a0^2]
   Center  Symbol  Z      XX        XY        XZ        YY        YZ        ZZ
      1       C    6   -3.5867   -0.0000   -0.0000   -4.1726   -0.0000   -4.5699
      2       C    6   -3.5867   -0.0000    0.0000   -4.1726    0.0000   -4.5699

  MBIS Octupoles: [e a0^3]
   Center  Symbol  Z      XXX       XXY       XXZ       XYY       XYZ       XZZ       YYY       YYZ       YZZ       ZZZ
      1       C    6   -0.0000   -0.0000    0.3000   -0.0000    0.0000   -0.0000    0.0000    0.1344    0.0000    0.7210
      2       C    6   -0.0000   -0.0000   -0.3000   -0.0000   -0.0000   -0.0000    0.0000   -0.1344    0.0000   -0.7210

  MBIS Radial Moments:
   Center  Symbol  Z      [a0^2]      [a0^3]      [a0^4]
      1       C    6   12.329224   29.001652   81.979908
      2       C    6   12.329224   29.001652   81.979908

  MBIS Valence Widths: [a0]
   Center  Symbol  Z     Width
      1       C    6    0.487837
      2       C    6    0.487837

*** tstop() called on Mac.lan at Sun Aug 10 17:03:39 2025
Module time:
	user time   =       3.72 seconds =       0.06 minutes
	system time =       2.59 seconds =       0.04 minutes
	total time  =          1 seconds =       0.02 minutes
Total time:
	user time   =      14.82 seconds =       0.25 minutes
	system time =       4.94 seconds =       0.08 minutes
	total time  =          2 seconds =       0.03 minutes

    Psi4 stopped on: Sunday, 10 August 2025 05:03PM
    Psi4 wall time for execution: 0:00:01.94

*** Psi4 exiting successfully. Buy a developer a beer!
