                               Psi4 1.9.1 release

  ==> Input File <==

--------------------------------------------------------------------------
molecule {
0 3
O           0.000000           0.000000           0.000000
O           0.000000           0.000000           0.878531
}

set {
basis              cc-pvtz
reference          uks
maxiter            500
DAMPING_PERCENTAGE 1
E_CONVERGENCE      1.0E-8
D_CONVERGENCE      1.0E-8
DIIS_MAX_VECS      400
MBIS_MAXITER       8000
guess              read
}

E, wfn = energy('b3lyp', restart_file='last_wfn', return_wfn=True)
properties('b3lyp','MBIS_CHARGES', wfn=wfn)
wfn.to_file('last_wfn')
--------------------------------------------------------------------------

    Molecular point group: d2h
  Charge       = 0
  Multiplicity = 3
  Basis Set: CC-PVTZ
    Blend: CC-PVTZ
  Basis Set: (CC-PVTZ AUX)
    Blend: CC-PVTZ-JKFIT
  @DF-UKS Final Energy:  -150.01144347955037
    Total Energy =                       -150.0114434795503655
 Dipole X            :          0.0000000            0.0000000            0.0000000
 Dipole Y            :          0.0000000            0.0000000            0.0000000
 Dipole Z            :          0.0000000            0.0000000            0.0000000
 Magnitude           :                                                    0.0000000
    Molecular point group: d2h

    Geometry (in Angstrom), charge = 0, multiplicity = 3:

       Center              X                  Y                   Z               Mass
    ------------   -----------------  -----------------  -----------------  -----------------
         O            0.000000000000     0.000000000000    -0.439265500000    15.994914619570
         O            0.000000000000     0.000000000000     0.439265500000    15.994914619570

  Charge       = 0
  Multiplicity = 3
  Basis Set: CC-PVTZ
    Blend: CC-PVTZ
  Basis Set: (CC-PVTZ AUX)
    Blend: CC-PVTZ-JKFIT

    Orbital Energies [Eh]
    ---------------------

    Alpha Occupied:

       1Ag   -19.249568     1B1u  -19.244789     2Ag    -1.651279
       1B3u   -0.741767     1B2u   -0.741767     2B1u   -0.738124
       3Ag    -0.615718     1B2g   -0.148357     1B3g   -0.148357

    Alpha Virtual:

       3B1u    0.342372     2B2u    0.440543     2B3u    0.440543
       4Ag     0.494407     2B2g    0.638097     2B3g    0.638097
       5Ag     0.650945     4B1u    1.024768     1B1g    1.122308
       6Ag     1.122308     5B1u    1.224294     3B3u    1.543520
       3B2u    1.543520     6B1u    1.749318     1Au     1.749318
       7Ag     2.133011     3B2g    2.262419     3B3g    2.262419
       7B1u    2.689444     4B2u    3.377128     4B3u    3.377128
       8Ag     3.854713     4B2g    3.986489     4B3g    3.986489
       8B1u    4.376444     2B1g    4.573323     9Ag     4.573324
       5B2u    4.609192     5B3u    4.609192     6B3u    4.923577
       6B2u    4.923577     5B2g    5.397657     5B3g    5.397657
      10Ag     5.479726     6B2g    5.902328     6B3g    5.902328
       3B1g    5.984885    11Ag     5.984887     2Au     6.154809
       9B1u    6.154810    10B1u    6.381351    12Ag     6.514060
      11B1u    6.684488     3Au     6.684488     7B2u    6.885129
       7B3u    6.885129    12B1u    8.034419     7B2g    8.968923
       7B3g    8.968923    13Ag     9.394066    13B1u   25.649428

    Beta Occupied:

       1Ag   -19.221501     1B1u  -19.216433     2Ag    -1.613250
       2B1u   -0.652881     1B3u   -0.652328     1B2u   -0.652328
       3Ag    -0.564575

    Beta Virtual:

       1B2g    0.041387     1B3g    0.041387     3B1u    0.356177
       2B2u    0.466165     2B3u    0.466165     4Ag     0.502033
       5Ag     0.677052     2B2g    0.689868     2B3g    0.689868
       4B1u    1.062463     1B1g    1.160914     6Ag     1.160914
       5B1u    1.267697     3B3u    1.584505     3B2u    1.584505
       1Au     1.816765     6B1u    1.816765     7Ag     2.153625
       3B2g    2.304464     3B3g    2.304464     7B1u    2.720181
       4B2u    3.443744     4B3u    3.443744     8Ag     3.879044
       4B2g    4.057081     4B3g    4.057081     8B1u    4.424341
       9Ag     4.606100     2B1g    4.606100     5B2u    4.667881
       5B3u    4.667881     6B3u    4.963016     6B2u    4.963016
       5B2g    5.472622     5B3g    5.472622    10Ag     5.508406
       6B2g    5.948596     6B3g    5.948596     3B1g    6.084285
      11Ag     6.084287     2Au     6.255504     9B1u    6.255506
      10B1u    6.418753    12Ag     6.556414    11B1u    6.739465
       3Au     6.739465     7B3u    6.930091     7B2u    6.930091
      12B1u    8.067622     7B2g    9.017685     7B3g    9.017685
      13Ag     9.433949    13B1u   25.686584

    Final Occupation by Irrep:
             Ag   B1g   B2g   B3g    Au   B1u   B2u   B3u
    DOCC [     3,    0,    0,    0,    0,    2,    1,    1 ]
    SOCC [     0,    0,    1,    1,    0,    0,    0,    0 ]
    NA   [     3,    0,    1,    1,    0,    2,    1,    1 ]
    NB   [     3,    0,    0,    0,    0,    2,    1,    1 ]

  @DF-UKS Final Energy:  -150.01144347846983

   => Energetics <=

    Nuclear Repulsion Energy =             38.5499674830825683
    One-Electron Energy =                -281.1276760007328903
    Two-Electron Energy =                 106.7101537927451318
    DFT Exchange-Correlation Energy =     -14.1438887535646476
    Empirical Dispersion Energy =           0.0000000000000000
    VV10 Nonlocal Energy =                  0.0000000000000000
    Total Energy =                       -150.0114434784698290

  UHF NO Occupations:
  HONO-2 :    1B2u 1.9994486
  HONO-1 :    1B2g 1.0000000
  HONO-0 :    1B3g 1.0000000
  LUNO+0 :    2B2u 0.0005514
  LUNO+1 :    2B3u 0.0005514
  LUNO+2 :    3B1u 0.0005206
  LUNO+3 :    4 Ag 0.0002059

Computation Completed

Properties will be evaluated at   0.000000,   0.000000,   0.000000 [a0]

Properties computed using the B3LYP density matrix

 Multipole Moments:

 ------------------------------------------------------------------------------------
     Multipole            Electronic (a.u.)      Nuclear  (a.u.)        Total (a.u.)
 ------------------------------------------------------------------------------------

 L = 1.  Multiply by 2.5417464519 to convert [e a0] to [Debye]
 Dipole X            :          0.0000000            0.0000000            0.0000000
 Dipole Y            :          0.0000000            0.0000000            0.0000000
 Dipole Z            :          0.0000000            0.0000000            0.0000000
 Magnitude           :                                                    0.0000000

 L = 2.  Multiply by 1.3450342976 to convert [e a0^2] to [Debye ang]
 Quadrupole XX       :         -6.8731126            0.0000000           -6.8731126
 Quadrupole XY       :          0.0000000            0.0000000            0.0000000
 Quadrupole XZ       :          0.0000000            0.0000000            0.0000000
 Quadrupole YY       :         -6.8731126            0.0000000           -6.8731126
 Quadrupole YZ       :          0.0000000            0.0000000            0.0000000
 Quadrupole ZZ       :        -19.1610621           11.0248301           -8.1362320
 Traceless XX        :          4.0959832           -3.6749434            0.4210398
 Traceless YY        :          4.0959832           -3.6749434            0.4210398
 Traceless ZZ        :         -8.1919663            7.3498868           -0.8420796

 ------------------------------------------------------------------------------------
  ==> Computing MBIS Charges <==

  Electron Count from Grid (Expected Number): 16.00000 (16.00000)
  Difference: -0.00000

  MBIS Charges: (a.u.)
   Center  Symbol  Z      Pop.       Charge
      1       O    8    8.000000    0.000000
      2       O    8    8.000000    0.000000

  MBIS Dipoles: [e a0]
   Center  Symbol  Z        X           Y           Z
      1       O    8   -0.000000   -0.000000    0.217657
      2       O    8   -0.000000   -0.000000   -0.217657

  MBIS Quadrupoles: [e a0^2]
   Center  Symbol  Z      XX        XY        XZ        YY        YZ        ZZ
      1       O    8   -3.4366   -0.0000    0.0000   -3.4366    0.0000   -3.7068
      2       O    8   -3.4366   -0.0000    0.0000   -3.4366    0.0000   -3.7068

  MBIS Octupoles: [e a0^3]
   Center  Symbol  Z      XXX       XXY       XXZ       XYY       XYZ       XZZ       YYY       YYZ       YZZ       ZZZ
      1       O    8    0.0000   -0.0000    0.3477   -0.0000    0.0000   -0.0000    0.0000    0.3477   -0.0000    0.2048
      2       O    8   -0.0000   -0.0000   -0.3477    0.0000    0.0000    0.0000    0.0000   -0.3477    0.0000   -0.2048

  MBIS Radial Moments:
   Center  Symbol  Z      [a0^2]      [a0^3]      [a0^4]
      1       O    8   10.579878   19.417804   43.038219
      2       O    8   10.579878   19.417804   43.038219

  MBIS Valence Widths: [a0]
   Center  Symbol  Z     Width
      1       O    8    0.371690
      2       O    8    0.371690

*** tstop() called on Mac.lan at Sun Aug 10 17:01:13 2025
Module time:
	user time   =       3.99 seconds =       0.07 minutes
	system time =       2.31 seconds =       0.04 minutes
	total time  =          1 seconds =       0.02 minutes
Total time:
	user time   =      16.51 seconds =       0.28 minutes
	system time =       4.50 seconds =       0.07 minutes
	total time  =          2 seconds =       0.03 minutes

    Psi4 stopped on: Sunday, 10 August 2025 05:01PM
    Psi4 wall time for execution: 0:00:02.04

*** Psi4 exiting successfully. Buy a developer a beer!
