                               Psi4 1.9.1 release

  ==> Input File <==

--------------------------------------------------------------------------
molecule {
0 2
O           0.000000           0.000000           0.000000
H           0.000000           0.000000           0.656367
}

set {
basis              cc-pvtz
reference          uks
maxiter            500
DAMPING_PERCENTAGE 1
E_CONVERGENCE      1.0E-8
D_CONVERGENCE      1.0E-8
DIIS_MAX_VECS      400
MBIS_MAXITER       8000
guess              read
}

E, wfn = energy('b3lyp', restart_file='last_wfn', return_wfn=True)
properties('b3lyp','MBIS_CHARGES', wfn=wfn)
wfn.to_file('last_wfn')
--------------------------------------------------------------------------

    Molecular point group: c2v
  Charge       = 0
  Multiplicity = 2
  Basis Set: CC-PVTZ
    Blend: CC-PVTZ
  Basis Set: (CC-PVTZ AUX)
    Blend: CC-PVTZ-JKFIT
  @DF-UKS Final Energy:   -75.55735505091531
    Total Energy =                        -75.5573550509153193
 Dipole X            :          0.0000000            0.0000000            0.0000000
 Dipole Y            :          0.0000000            0.0000000            0.0000000
 Dipole Z            :          0.0150626            0.5786642            0.5937269
 Magnitude           :                                                    0.5937269
    Molecular point group: c2v

    Geometry (in Angstrom), charge = 0, multiplicity = 2:

       Center              X                  Y                   Z               Mass
    ------------   -----------------  -----------------  -----------------  -----------------
         O            0.000000000000     0.000000000000    -0.038905676760    15.994914619570
         H            0.000000000000     0.000000000000     0.617461323240     1.007825032230

  Charge       = 0
  Multiplicity = 2
  Basis Set: CC-PVTZ
    Blend: CC-PVTZ
  Basis Set: (CC-PVTZ AUX)
    Blend: CC-PVTZ-JKFIT

    Orbital Energies [Eh]
    ---------------------

    Alpha Occupied:

       1A1   -19.170991     2A1    -1.152113     3A1    -0.524921
       1B1    -0.437617     1B2    -0.364229

    Alpha Virtual:

       4A1     0.063405     5A1     0.472988     2B1     0.512767
       2B2     0.545235     6A1     0.600098     3B1     0.750516
       3B2     0.772758     7A1     0.800452     8A1     1.408737
       1A2     1.409524     9A1     1.671871     4B1     1.816351
       4B2     1.853163    10A1     1.981566    11A1     2.752369
       5B1     3.328682     2A2     3.349287    12A1     3.349379
       5B2     3.358903     6B1     3.617971     6B2     3.672534
      13A1     3.936407     7B1     4.435824     7B2     4.468841
      14A1     4.611247     8B1     5.051145     8B2     5.051415
      15A1     5.821752     3A2     5.852789    16A1     5.867463
       4A2     6.099759    17A1     6.102600     9B1     6.121177
       9B2     6.172980    18A1     7.608584    19A1     7.797600
      10B1     8.140320    10B2     8.189334    20A1    14.326478

    Beta Occupied:

       1A1   -19.146081     2A1    -1.088487     3A1    -0.491981
       1B2    -0.338612

    Beta Virtual:

       1B1    -0.189022     4A1     0.067993     5A1     0.479507
       2B2     0.554090     2B1     0.575648     6A1     0.609415
       3B2     0.775274     3B1     0.780867     7A1     0.822278
       1A2     1.462365     8A1     1.468028     9A1     1.691500
       4B2     1.858605     4B1     1.862582    10A1     2.005566
      11A1     2.761331     5B2     3.362904     2A2     3.367278
      12A1     3.368503     5B1     3.371550     6B2     3.688918
       6B1     3.711291    13A1     3.951599     7B2     4.472568
       7B1     4.475833    14A1     4.642383     8B2     5.121599
       8B1     5.124503    15A1     5.876555     3A2     5.894192
      16A1     5.898385     9B2     6.181652     9B1     6.188517
       4A2     6.193260    17A1     6.208451    18A1     7.629968
      19A1     7.813477    10B2     8.198769    10B1     8.209665
      20A1    14.354482

    Final Occupation by Irrep:
             A1    A2    B1    B2
    DOCC [     3,    0,    0,    1 ]
    SOCC [     0,    0,    1,    0 ]
    NA   [     3,    0,    1,    1 ]
    NB   [     3,    0,    0,    1 ]

  @DF-UKS Final Energy:   -75.55735505083986

   => Energetics <=

    Nuclear Repulsion Energy =              6.4497722849564347
    One-Electron Energy =                -116.0142228536069808
    Two-Electron Energy =                  41.3657852654904516
    DFT Exchange-Correlation Energy =      -7.3586897476797777
    Empirical Dispersion Energy =           0.0000000000000000
    VV10 Nonlocal Energy =                  0.0000000000000000
    Total Energy =                        -75.5573550508398597

  UHF NO Occupations:
  HONO-2 :    1 B2 1.9998592
  HONO-1 :    3 A1 1.9993840
  HONO-0 :    1 B1 1.0000000
  LUNO+0 :    4 A1 0.0006160
  LUNO+1 :    2 B2 0.0001408
  LUNO+2 :    5 A1 0.0000887
  LUNO+3 :    6 A1 0.0000006

Computation Completed

Properties will be evaluated at   0.000000,   0.000000,   0.000000 [a0]

Properties computed using the B3LYP density matrix

 Multipole Moments:

 ------------------------------------------------------------------------------------
     Multipole            Electronic (a.u.)      Nuclear  (a.u.)        Total (a.u.)
 ------------------------------------------------------------------------------------

 L = 1.  Multiply by 2.5417464519 to convert [e a0] to [Debye]
 Dipole X            :          0.0000000            0.0000000            0.0000000
 Dipole Y            :          0.0000000            0.0000000            0.0000000
 Dipole Z            :          0.0150626            0.5786642            0.5937269
 Magnitude           :                                                    0.5937269

 L = 2.  Multiply by 1.3450342976 to convert [e a0^2] to [Debye ang]
 Quadrupole XX       :         -3.7599353            0.0000000           -3.7599353
 Quadrupole XY       :          0.0000000            0.0000000            0.0000000
 Quadrupole XZ       :          0.0000000            0.0000000            0.0000000
 Quadrupole YY       :         -4.6305865            0.0000000           -4.6305865
 Quadrupole YZ       :          0.0000000            0.0000000            0.0000000
 Quadrupole ZZ       :         -5.0191976            1.4047416           -3.6144560
 Traceless XX        :          0.7099711           -0.4682472            0.2417240
 Traceless YY        :         -0.1606801           -0.4682472           -0.6289272
 Traceless ZZ        :         -0.5492911            0.9364944            0.3872033

 ------------------------------------------------------------------------------------
  ==> Computing MBIS Charges <==

  Electron Count from Grid (Expected Number):  9.00000 ( 9.00000)
  Difference:  0.00000

  MBIS Charges: (a.u.)
   Center  Symbol  Z      Pop.       Charge
      1       O    8    8.440038   -0.440038
      2       H    1    0.559962    0.440038

  MBIS Dipoles: [e a0]
   Center  Symbol  Z        X           Y           Z
      1       O    8   -0.000000   -0.000000    0.029113
      2       H    1    0.000000    0.000000    0.018811

  MBIS Quadrupoles: [e a0^2]
   Center  Symbol  Z      XX        XY        XZ        YY        YZ        ZZ
      1       O    8   -3.6229    0.0000    0.0000   -4.4756   -0.0000   -4.1067
      2       H    1   -0.1371   -0.0000    0.0000   -0.1550   -0.0000   -0.1441

  MBIS Octupoles: [e a0^3]
   Center  Symbol  Z      XXX       XXY       XXZ       XYY       XYZ       XZZ       YYY       YYZ       YZZ       ZZZ
      1       O    8   -0.0000   -0.0000    0.1182   -0.0000    0.0000    0.0000   -0.0000    0.0646   -0.0000    0.0721
      2       H    1    0.0000   -0.0000    0.0014    0.0000   -0.0000    0.0000   -0.0000    0.0040   -0.0000    0.0049

  MBIS Radial Moments:
   Center  Symbol  Z      [a0^2]      [a0^3]      [a0^4]
      1       O    8   12.205236   23.113680   52.275829
      2       H    1    0.436093    0.551975    0.840689

  MBIS Valence Widths: [a0]
   Center  Symbol  Z     Width
      1       O    8    0.387379
      2       H    1    0.256280

*** tstop() called on Mac.lan at Sun Aug 10 17:11:00 2025
Module time:
	user time   =       4.12 seconds =       0.07 minutes
	system time =       2.81 seconds =       0.05 minutes
	total time  =          1 seconds =       0.02 minutes
Total time:
	user time   =      17.43 seconds =       0.29 minutes
	system time =       5.27 seconds =       0.09 minutes
	total time  =          2 seconds =       0.03 minutes

    Psi4 stopped on: Sunday, 10 August 2025 05:11PM
    Psi4 wall time for execution: 0:00:02.26

*** Psi4 exiting successfully. Buy a developer a beer!
