                               Psi4 1.9.1 release

  ==> Input File <==

--------------------------------------------------------------------------
molecule {
0 1
N           0.000000           0.000000           0.000000
N           0.000000           0.000000           0.694886
}

set {
basis              cc-pvtz
reference          uks
maxiter            500
DAMPING_PERCENTAGE 1
E_CONVERGENCE      1.0E-8
D_CONVERGENCE      1.0E-8
DIIS_MAX_VECS      400
MBIS_MAXITER       8000
guess              read
}

E, wfn = energy('b3lyp', restart_file='last_wfn', return_wfn=True)
properties('b3lyp','MBIS_CHARGES', wfn=wfn)
wfn.to_file('last_wfn')
--------------------------------------------------------------------------

    Molecular point group: d2h
  Charge       = 0
  Multiplicity = 1
  Basis Set: CC-PVTZ
    Blend: CC-PVTZ
  Basis Set: (CC-PVTZ AUX)
    Blend: CC-PVTZ-JKFIT
  @DF-UKS Final Energy:  -108.26262052151114
    Total Energy =                       -108.2626205215111383
 Dipole X            :          0.0000000            0.0000000            0.0000000
 Dipole Y            :          0.0000000            0.0000000            0.0000000
 Dipole Z            :          0.0000000           -0.0000000           -0.0000000
 Magnitude           :                                                    0.0000000
    Molecular point group: d2h

    Geometry (in Angstrom), charge = 0, multiplicity = 1:

       Center              X                  Y                   Z               Mass
    ------------   -----------------  -----------------  -----------------  -----------------
         N            0.000000000000     0.000000000000    -0.347443000000    14.003074004430
         N            0.000000000000     0.000000000000     0.347443000000    14.003074004430

  Charge       = 0
  Multiplicity = 1
  Basis Set: CC-PVTZ
    Blend: CC-PVTZ
  Basis Set: (CC-PVTZ AUX)
    Blend: CC-PVTZ-JKFIT

    Orbital Energies [Eh]
    ---------------------

    Alpha Occupied:

       1Ag   -14.376490     1B1u  -14.283004     2Ag    -1.243135
       1B2u   -0.676444     1B3u   -0.676444     3Ag    -0.451236
       2B1u   -0.425436

    Alpha Virtual:

       1B3g    0.203453     1B2g    0.203453     3B1u    0.306840
       2B2u    0.322209     2B3u    0.322209     4Ag     0.370235
       5Ag     0.542405     2B3g    0.656758     2B2g    0.656758
       1B1g    0.838612     6Ag     0.838612     4B1u    0.889207
       3B2u    1.357647     3B3u    1.357647     1Au     1.413505
       5B1u    1.413505     6B1u    1.439035     7Ag     1.518627
       3B3g    1.730937     3B2g    1.730937     4B3u    2.488021
       4B2u    2.488021     7B1u    3.222230     8Ag     3.226679
       5B3u    3.462912     5B2u    3.462912     4B2g    3.517286
       4B3g    3.517286     2B1g    3.611671     9Ag     3.611671
       8B1u    3.750397     6B2u    4.077550     6B3u    4.077550
      10Ag     4.281204     2Au     4.286183     9B1u    4.286183
       5B2g    4.488980     5B3g    4.488980     6B3g    4.522736
       6B2g    4.522736     3B1g    4.569903    11Ag     4.569903
      12Ag     4.774789    10B1u    5.373013     7B2u    5.960280
       7B3u    5.960280     3Au     6.292795    11B1u    6.292795
       7B2g    8.128996     7B3g    8.128996    12B1u    8.466499
      13Ag     8.793080    13B1u   28.684985

    Beta Occupied:

       1Ag   -14.376490     1B1u  -14.283004     2Ag    -1.243135
       1B2u   -0.676444     1B3u   -0.676444     3Ag    -0.451236
       2B1u   -0.425436

    Beta Virtual:

       1B3g    0.203453     1B2g    0.203453     3B1u    0.306840
       2B2u    0.322209     2B3u    0.322209     4Ag     0.370235
       5Ag     0.542405     2B3g    0.656758     2B2g    0.656758
       1B1g    0.838612     6Ag     0.838612     4B1u    0.889207
       3B2u    1.357647     3B3u    1.357647     1Au     1.413505
       5B1u    1.413505     6B1u    1.439035     7Ag     1.518627
       3B3g    1.730937     3B2g    1.730937     4B3u    2.488021
       4B2u    2.488021     7B1u    3.222230     8Ag     3.226679
       5B3u    3.462912     5B2u    3.462912     4B2g    3.517286
       4B3g    3.517286     2B1g    3.611671     9Ag     3.611671
       8B1u    3.750397     6B2u    4.077550     6B3u    4.077550
      10Ag     4.281204     2Au     4.286183     9B1u    4.286183
       5B2g    4.488980     5B3g    4.488980     6B3g    4.522736
       6B2g    4.522736     3B1g    4.569903    11Ag     4.569903
      12Ag     4.774789    10B1u    5.373013     7B2u    5.960280
       7B3u    5.960280     3Au     6.292795    11B1u    6.292795
       7B2g    8.128996     7B3g    8.128996    12B1u    8.466499
      13Ag     8.793080    13B1u   28.684985

    Final Occupation by Irrep:
             Ag   B1g   B2g   B3g    Au   B1u   B2u   B3u
    DOCC [     3,    0,    0,    0,    0,    2,    1,    1 ]
    SOCC [     0,    0,    0,    0,    0,    0,    0,    0 ]
    NA   [     3,    0,    0,    0,    0,    2,    1,    1 ]
    NB   [     3,    0,    0,    0,    0,    2,    1,    1 ]

  @DF-UKS Final Energy:  -108.26262052117063

   => Energetics <=

    Nuclear Repulsion Energy =             37.3150176040818167
    One-Electron Energy =                -218.4479262463768237
    Two-Electron Energy =                  84.6345958004684746
    DFT Exchange-Correlation Energy =     -11.7643076793440962
    Empirical Dispersion Energy =           0.0000000000000000
    VV10 Nonlocal Energy =                  0.0000000000000000
    Total Energy =                       -108.2626205211706321

  UHF NO Occupations:
  HONO-2 :    3 Ag 2.0000000
  HONO-1 :    1B3u 2.0000000
  HONO-0 :    2B1u 2.0000000
  LUNO+0 :    3B1u 0.0000000
  LUNO+1 :    4 Ag 0.0000000
  LUNO+2 :    4B1u 0.0000000
  LUNO+3 :    5B1u 0.0000000

Computation Completed

Properties will be evaluated at   0.000000,   0.000000,   0.000000 [a0]

Properties computed using the B3LYP density matrix

 Multipole Moments:

 ------------------------------------------------------------------------------------
     Multipole            Electronic (a.u.)      Nuclear  (a.u.)        Total (a.u.)
 ------------------------------------------------------------------------------------

 L = 1.  Multiply by 2.5417464519 to convert [e a0] to [Debye]
 Dipole X            :          0.0000000            0.0000000            0.0000000
 Dipole Y            :          0.0000000            0.0000000            0.0000000
 Dipole Z            :          0.0000000           -0.0000000           -0.0000000
 Magnitude           :                                                    0.0000000

 L = 2.  Multiply by 1.3450342976 to convert [e a0^2] to [Debye ang]
 Quadrupole XX       :         -6.3802230            0.0000000           -6.3802230
 Quadrupole XY       :          0.0000000            0.0000000            0.0000000
 Quadrupole XZ       :          0.0000000            0.0000000            0.0000000
 Quadrupole YY       :         -6.3802230            0.0000000           -6.3802230
 Quadrupole YZ       :          0.0000000            0.0000000            0.0000000
 Quadrupole ZZ       :        -14.3631231            6.0352172           -8.3279059
 Traceless XX        :          2.6609667           -2.0117391            0.6492276
 Traceless YY        :          2.6609667           -2.0117391            0.6492276
 Traceless ZZ        :         -5.3219334            4.0234781           -1.2984553

 ------------------------------------------------------------------------------------
  ==> Computing MBIS Charges <==

  Electron Count from Grid (Expected Number): 14.00000 (14.00000)
  Difference: -0.00000

  MBIS Charges: (a.u.)
   Center  Symbol  Z      Pop.       Charge
      1       N    7    6.999999    0.000001
      2       N    7    6.999999    0.000001

  MBIS Dipoles: [e a0]
   Center  Symbol  Z        X           Y           Z
      1       N    7    0.000000   -0.000000    0.153727
      2       N    7    0.000000    0.000000   -0.153727

  MBIS Quadrupoles: [e a0^2]
   Center  Symbol  Z      XX        XY        XZ        YY        YZ        ZZ
      1       N    7   -3.1901   -0.0000   -0.0000   -3.1901   -0.0000   -3.9621
      2       N    7   -3.1901   -0.0000    0.0000   -3.1901    0.0000   -3.9621

  MBIS Octupoles: [e a0^3]
   Center  Symbol  Z      XXX       XXY       XXZ       XYY       XYZ       XZZ       YYY       YYZ       YZZ       ZZZ
      1       N    7    0.0000   -0.0000    0.2659   -0.0000   -0.0000    0.0000   -0.0000    0.2659    0.0000    0.8513
      2       N    7    0.0000   -0.0000   -0.2659   -0.0000    0.0000    0.0000    0.0000   -0.2659   -0.0000   -0.8513

  MBIS Radial Moments:
   Center  Symbol  Z      [a0^2]      [a0^3]      [a0^4]
      1       N    7   10.342310   20.393371   48.548928
      2       N    7   10.342310   20.393371   48.548928

  MBIS Valence Widths: [a0]
   Center  Symbol  Z     Width
      1       N    7    0.399011
      2       N    7    0.399011

*** tstop() called on Mac.lan at Sun Aug 10 17:06:21 2025
Module time:
	user time   =       4.01 seconds =       0.07 minutes
	system time =       2.57 seconds =       0.04 minutes
	total time  =          0 seconds =       0.00 minutes
Total time:
	user time   =      15.90 seconds =       0.26 minutes
	system time =       4.44 seconds =       0.07 minutes
	total time  =          2 seconds =       0.03 minutes

    Psi4 stopped on: Sunday, 10 August 2025 05:06PM
    Psi4 wall time for execution: 0:00:01.97

*** Psi4 exiting successfully. Buy a developer a beer!
