                               Psi4 1.9.1 release

  ==> Input File <==

--------------------------------------------------------------------------
molecule {
0 1
O           0.000000           0.000000           0.000000
C           0.000000           0.000000           1.027307
}

set {
basis              cc-pvtz
reference          uks
maxiter            500
DAMPING_PERCENTAGE 1
E_CONVERGENCE      1.0E-8
D_CONVERGENCE      1.0E-8
DIIS_MAX_VECS      400
MBIS_MAXITER       8000
guess              read
}

E, wfn = energy('b3lyp', restart_file='last_wfn', return_wfn=True)
properties('b3lyp','MBIS_CHARGES', wfn=wfn)
wfn.to_file('last_wfn')
--------------------------------------------------------------------------

    Molecular point group: c2v
  Charge       = 0
  Multiplicity = 1
  Basis Set: CC-PVTZ
    Blend: CC-PVTZ
  Basis Set: (CC-PVTZ AUX)
    Blend: CC-PVTZ-JKFIT
  @DF-UKS Final Energy:  -113.32911908938755
    Total Energy =                       -113.3291190893875466
 Dipole X            :          0.0000000            0.0000000            0.0000000
 Dipole Y            :          0.0000000            0.0000000            0.0000000
 Dipole Z            :         -0.1793121           -0.0021159           -0.1814280
 Magnitude           :                                                    0.1814280
    Molecular point group: c2v

    Geometry (in Angstrom), charge = 0, multiplicity = 1:

       Center              X                  Y                   Z               Mass
    ------------   -----------------  -----------------  -----------------  -----------------
         O            0.000000000000     0.000000000000    -0.440354406060    15.994914619570
         C            0.000000000000     0.000000000000     0.586952593940    12.000000000000

  Charge       = 0
  Multiplicity = 1
  Basis Set: CC-PVTZ
    Blend: CC-PVTZ
  Basis Set: (CC-PVTZ AUX)
    Blend: CC-PVTZ-JKFIT

    Orbital Energies [Eh]
    ---------------------

    Alpha Occupied:

       1A1   -19.232154     2A1   -10.257222     3A1    -1.227386
       4A1    -0.583007     1B1    -0.519905     1B2    -0.519905
       5A1    -0.373019

    Alpha Virtual:

       2B1     0.007193     2B2     0.007193     6A1     0.160563
       3B1     0.287614     3B2     0.287614     7A1     0.303872
       8A1     0.534881     4B2     0.607976     4B1     0.607976
       9A1     0.633156     1A2     0.633156    10A1     0.712174
       5B1     0.896770     5B2     0.896770    11A1     1.137509
      12A1     1.459260     2A2     1.519904    13A1     1.519904
      14A1     1.902267     6B2     1.925570     6B1     1.925570
       7B2     1.954487     7B1     1.954487    15A1     2.558085
       8B2     2.633073     8B1     2.633073    16A1     2.859682
       3A2     2.859682    17A1     2.948932     4A2     2.948932
       9B2     2.981101     9B1     2.981101    18A1     3.067861
      10B1     3.319580    10B2     3.319580    19A1     3.512565
      11B2     4.159249    11B1     4.159249    20A1     4.778122
      12B1     5.081299    12B2     5.081299     5A2     5.625801
      21A1     5.625802    22A1     6.164688     6A2     6.232413
      23A1     6.232417    13B1     6.492773    13B2     6.492773
      14B2     6.724158    14B1     6.724158    24A1     6.850325
      25A1     7.558274    26A1    13.680953

    Beta Occupied:

       1A1   -19.232154     2A1   -10.257222     3A1    -1.227386
       4A1    -0.583007     1B1    -0.519905     1B2    -0.519905
       5A1    -0.373019

    Beta Virtual:

       2B1     0.007193     2B2     0.007193     6A1     0.160563
       3B1     0.287614     3B2     0.287614     7A1     0.303872
       8A1     0.534881     4B2     0.607976     4B1     0.607976
       9A1     0.633156     1A2     0.633156    10A1     0.712174
       5B1     0.896770     5B2     0.896770    11A1     1.137509
      12A1     1.459260     2A2     1.519904    13A1     1.519904
      14A1     1.902267     6B2     1.925570     6B1     1.925570
       7B2     1.954487     7B1     1.954487    15A1     2.558085
       8B2     2.633073     8B1     2.633073    16A1     2.859682
       3A2     2.859682    17A1     2.948932     4A2     2.948932
       9B2     2.981101     9B1     2.981101    18A1     3.067861
      10B1     3.319580    10B2     3.319580    19A1     3.512565
      11B2     4.159249    11B1     4.159249    20A1     4.778122
      12B1     5.081299    12B2     5.081299     5A2     5.625801
      21A1     5.625802    22A1     6.164688     6A2     6.232413
      23A1     6.232417    13B1     6.492773    13B2     6.492773
      14B2     6.724158    14B1     6.724158    24A1     6.850325
      25A1     7.558274    26A1    13.680953

    Final Occupation by Irrep:
             A1    A2    B1    B2
    DOCC [     5,    0,    1,    1 ]
    SOCC [     0,    0,    0,    0 ]
    NA   [     5,    0,    1,    1 ]
    NB   [     5,    0,    1,    1 ]

  @DF-UKS Final Energy:  -113.32911908940859

   => Energetics <=

    Nuclear Repulsion Energy =             24.7253314852911501
    One-Electron Energy =                -202.5376696703900734
    Two-Electron Energy =                  75.8133659782477309
    DFT Exchange-Correlation Energy =     -11.3301468825573952
    Empirical Dispersion Energy =           0.0000000000000000
    VV10 Nonlocal Energy =                  0.0000000000000000
    Total Energy =                       -113.3291190894085929

  UHF NO Occupations:
  HONO-2 :    4 A1 2.0000000
  HONO-1 :    1 B1 2.0000000
  HONO-0 :    5 A1 2.0000000
  LUNO+0 :    6 A1 0.0000000
  LUNO+1 :    7 A1 0.0000000
  LUNO+2 :    8 A1 0.0000000
  LUNO+3 :    9 A1 0.0000000

Computation Completed

Properties will be evaluated at   0.000000,   0.000000,   0.000000 [a0]

Properties computed using the B3LYP density matrix

 Multipole Moments:

 ------------------------------------------------------------------------------------
     Multipole            Electronic (a.u.)      Nuclear  (a.u.)        Total (a.u.)
 ------------------------------------------------------------------------------------

 L = 1.  Multiply by 2.5417464519 to convert [e a0] to [Debye]
 Dipole X            :          0.0000000            0.0000000            0.0000000
 Dipole Y            :          0.0000000            0.0000000            0.0000000
 Dipole Z            :         -0.1793121           -0.0021159           -0.1814280
 Magnitude           :                                                    0.1814280

 L = 2.  Multiply by 1.3450342976 to convert [e a0^2] to [Debye ang]
 Quadrupole XX       :         -7.3955145            0.0000000           -7.3955145
 Quadrupole XY       :          0.0000000            0.0000000            0.0000000
 Quadrupole XZ       :          0.0000000            0.0000000            0.0000000
 Quadrupole YY       :         -7.3955145            0.0000000           -7.3955145
 Quadrupole YZ       :          0.0000000            0.0000000            0.0000000
 Quadrupole ZZ       :        -21.9668160           12.9214557           -9.0453603
 Traceless XX        :          4.8571005           -4.3071519            0.5499486
 Traceless YY        :          4.8571005           -4.3071519            0.5499486
 Traceless ZZ        :         -9.7142010            8.6143038           -1.0998972

 ------------------------------------------------------------------------------------
  ==> Computing MBIS Charges <==

  Electron Count from Grid (Expected Number): 14.00000 (14.00000)
  Difference:  0.00000

  MBIS Charges: (a.u.)
   Center  Symbol  Z      Pop.       Charge
      1       O    8    8.076468   -0.076468
      2       C    6    5.923533    0.076467

  MBIS Dipoles: [e a0]
   Center  Symbol  Z        X           Y           Z
      1       O    8   -0.000000    0.000000   -0.036468
      2       C    6    0.000000    0.000000   -0.293408

  MBIS Quadrupoles: [e a0^2]
   Center  Symbol  Z      XX        XY        XZ        YY        YZ        ZZ
      1       O    8   -3.4395    0.0000    0.0000   -3.4395    0.0000   -3.7064
      2       C    6   -3.9560   -0.0000    0.0000   -3.9560    0.0000   -4.7899

  MBIS Octupoles: [e a0^3]
   Center  Symbol  Z      XXX       XXY       XXZ       XYY       XYZ       XZZ       YYY       YYZ       YZZ       ZZZ
      1       O    8   -0.0000    0.0000    0.0351   -0.0000    0.0000   -0.0000   -0.0000    0.0351    0.0000    0.0334
      2       C    6   -0.0000    0.0000   -0.3380    0.0000    0.0000    0.0000    0.0000   -0.3380    0.0000   -1.0000

  MBIS Radial Moments:
   Center  Symbol  Z      [a0^2]      [a0^3]      [a0^4]
      1       O    8   10.585440   18.992631   40.914848
      2       C    6   12.701883   30.278566   85.605288

  MBIS Valence Widths: [a0]
   Center  Symbol  Z     Width
      1       O    8    0.371059
      2       C    6    0.502206

*** tstop() called on Mac.lan at Sun Aug 10 17:16:44 2025
Module time:
	user time   =       3.48 seconds =       0.06 minutes
	system time =       2.35 seconds =       0.04 minutes
	total time  =          0 seconds =       0.00 minutes
Total time:
	user time   =      17.32 seconds =       0.29 minutes
	system time =       4.41 seconds =       0.07 minutes
	total time  =          2 seconds =       0.03 minutes

    Psi4 stopped on: Sunday, 10 August 2025 05:16PM
    Psi4 wall time for execution: 0:00:02.11

*** Psi4 exiting successfully. Buy a developer a beer!
