                               Psi4 1.9.1 release

  ==> Input File <==

--------------------------------------------------------------------------
molecule {
0 1
N           0.000000           0.000000           0.000000
N           0.000000           0.000000           1.316274
}

set {
basis              cc-pvtz
reference          uks
maxiter            500
DAMPING_PERCENTAGE 1
E_CONVERGENCE      1.0E-8
D_CONVERGENCE      1.0E-8
DIIS_MAX_VECS      400
MBIS_MAXITER       8000
guess              read
}

E, wfn = energy('b3lyp', restart_file='last_wfn', return_wfn=True)
properties('b3lyp','MBIS_CHARGES', wfn=wfn)
wfn.to_file('last_wfn')
--------------------------------------------------------------------------

    Molecular point group: d2h
  Charge       = 0
  Multiplicity = 1
  Basis Set: CC-PVTZ
    Blend: CC-PVTZ
  Basis Set: (CC-PVTZ AUX)
    Blend: CC-PVTZ-JKFIT
  @DF-UKS Final Energy:  -109.48138600768281
    Total Energy =                       -109.4813860076828149
 Dipole X            :          0.0000000            0.0000000            0.0000000
 Dipole Y            :          0.0000000            0.0000000            0.0000000
 Dipole Z            :          0.0000000           -0.0000000           -0.0000000
 Magnitude           :                                                    0.0000000
    Molecular point group: d2h

    Geometry (in Angstrom), charge = 0, multiplicity = 1:

       Center              X                  Y                   Z               Mass
    ------------   -----------------  -----------------  -----------------  -----------------
         N            0.000000000000     0.000000000000    -0.658137000000    14.003074004430
         N            0.000000000000     0.000000000000     0.658137000000    14.003074004430

  Charge       = 0
  Multiplicity = 1
  Basis Set: CC-PVTZ
    Blend: CC-PVTZ
  Basis Set: (CC-PVTZ AUX)
    Blend: CC-PVTZ-JKFIT

    Orbital Energies [Eh]
    ---------------------

    Alpha Occupied:

       1Ag   -14.471046     1B1u  -14.470646     2Ag    -1.009041
       2B1u   -0.611262     3Ag    -0.422813     1B3u   -0.411702
       1B2u   -0.411702

    Alpha Virtual:

       1B2g   -0.111942     1B3g   -0.111942     3B1u    0.214724
       2B3u    0.410419     2B2u    0.410419     4Ag     0.432808
       4B1u    0.450010     5Ag     0.483004     2B2g    0.511727
       2B3g    0.511727     1B1g    0.856940     6Ag     0.856940
       5B1u    0.858388     3B3u    0.974332     3B2u    0.974332
       1Au     1.191793     6B1u    1.191793     7Ag     1.619727
       3B2g    1.620046     3B3g    1.620046     7B1u    1.653929
       4B3u    2.706377     4B2u    2.706377     8Ag     2.835475
       4B3g    2.928585     4B2g    2.928585     2B1g    3.458940
       9Ag     3.458941     5B3u    3.506188     5B2u    3.506188
       8B1u    3.581060    10Ag     3.692229     6B3u    3.706683
       6B2u    3.706683     5B3g    3.943038     5B2g    3.943038
       9B1u    4.265816    11Ag     4.328339     3B1g    4.328342
      10B1u    4.347087     2Au     4.347088     6B2g    4.575176
       6B3g    4.575176    11B1u    4.585031     3Au     4.585032
       7B3u    4.703012     7B2u    4.703012    12B1u    5.081257
      12Ag     5.297563    13Ag     5.567577     7B2g    5.611616
       7B3g    5.611616    13B1u   10.136448

    Beta Occupied:

       1Ag   -14.471046     1B1u  -14.470646     2Ag    -1.009041
       2B1u   -0.611262     3Ag    -0.422813     1B3u   -0.411702
       1B2u   -0.411702

    Beta Virtual:

       1B2g   -0.111942     1B3g   -0.111942     3B1u    0.214724
       2B3u    0.410419     2B2u    0.410419     4Ag     0.432808
       4B1u    0.450010     5Ag     0.483004     2B2g    0.511727
       2B3g    0.511727     1B1g    0.856940     6Ag     0.856940
       5B1u    0.858388     3B3u    0.974332     3B2u    0.974332
       1Au     1.191793     6B1u    1.191793     7Ag     1.619727
       3B2g    1.620046     3B3g    1.620046     7B1u    1.653929
       4B3u    2.706377     4B2u    2.706377     8Ag     2.835475
       4B3g    2.928585     4B2g    2.928585     2B1g    3.458940
       9Ag     3.458941     5B3u    3.506188     5B2u    3.506188
       8B1u    3.581060    10Ag     3.692229     6B3u    3.706683
       6B2u    3.706683     5B3g    3.943038     5B2g    3.943038
       9B1u    4.265816    11Ag     4.328339     3B1g    4.328342
      10B1u    4.347087     2Au     4.347088     6B2g    4.575176
       6B3g    4.575176    11B1u    4.585031     3Au     4.585032
       7B3u    4.703012     7B2u    4.703012    12B1u    5.081257
      12Ag     5.297563    13Ag     5.567577     7B2g    5.611616
       7B3g    5.611616    13B1u   10.136448

    Final Occupation by Irrep:
             Ag   B1g   B2g   B3g    Au   B1u   B2u   B3u
    DOCC [     3,    0,    0,    0,    0,    2,    1,    1 ]
    SOCC [     0,    0,    0,    0,    0,    0,    0,    0 ]
    NA   [     3,    0,    0,    0,    0,    2,    1,    1 ]
    NB   [     3,    0,    0,    0,    0,    2,    1,    1 ]

  @DF-UKS Final Energy:  -109.48138600785828

   => Energetics <=

    Nuclear Repulsion Energy =             19.6993052531843666
    One-Electron Energy =                -186.8917415893934049
    Two-Electron Energy =                  68.6180003116773207
    DFT Exchange-Correlation Energy =     -10.9069499833265731
    Empirical Dispersion Energy =           0.0000000000000000
    VV10 Nonlocal Energy =                  0.0000000000000000
    Total Energy =                       -109.4813860078582763

  UHF NO Occupations:
  HONO-2 :    2B1u 2.0000000
  HONO-1 :    3 Ag 2.0000000
  HONO-0 :    1B3u 2.0000000
  LUNO+0 :    3B1u 0.0000000
  LUNO+1 :    4 Ag 0.0000000
  LUNO+2 :    4B1u 0.0000000
  LUNO+3 :    2B2u 0.0000000

Computation Completed

Properties will be evaluated at   0.000000,   0.000000,   0.000000 [a0]

Properties computed using the B3LYP density matrix

 Multipole Moments:

 ------------------------------------------------------------------------------------
     Multipole            Electronic (a.u.)      Nuclear  (a.u.)        Total (a.u.)
 ------------------------------------------------------------------------------------

 L = 1.  Multiply by 2.5417464519 to convert [e a0] to [Debye]
 Dipole X            :          0.0000000            0.0000000            0.0000000
 Dipole Y            :          0.0000000            0.0000000            0.0000000
 Dipole Z            :          0.0000000           -0.0000000           -0.0000000
 Magnitude           :                                                    0.0000000

 L = 2.  Multiply by 1.3450342976 to convert [e a0^2] to [Debye ang]
 Quadrupole XX       :         -7.9739214            0.0000000           -7.9739214
 Quadrupole XY       :          0.0000000            0.0000000            0.0000000
 Quadrupole XZ       :          0.0000000            0.0000000            0.0000000
 Quadrupole YY       :         -7.9739214            0.0000000           -7.9739214
 Quadrupole YZ       :          0.0000000            0.0000000            0.0000000
 Quadrupole ZZ       :        -30.3342932           21.6550098           -8.6792834
 Traceless XX        :          7.4534573           -7.2183366            0.2351207
 Traceless YY        :          7.4534573           -7.2183366            0.2351207
 Traceless ZZ        :        -14.9069145           14.4366732           -0.4702413

 ------------------------------------------------------------------------------------
  ==> Computing MBIS Charges <==

  Electron Count from Grid (Expected Number): 14.00000 (14.00000)
  Difference:  0.00000

  MBIS Charges: (a.u.)
   Center  Symbol  Z      Pop.       Charge
      1       N    7    7.000000   -0.000000
      2       N    7    7.000000   -0.000000

  MBIS Dipoles: [e a0]
   Center  Symbol  Z        X           Y           Z
      1       N    7   -0.000000    0.000000    0.008192
      2       N    7    0.000000   -0.000000   -0.008192

  MBIS Quadrupoles: [e a0^2]
   Center  Symbol  Z      XX        XY        XZ        YY        YZ        ZZ
      1       N    7   -3.9870    0.0000   -0.0000   -3.9870   -0.0000   -4.3193
      2       N    7   -3.9870    0.0000    0.0000   -3.9870    0.0000   -4.3193

  MBIS Octupoles: [e a0^3]
   Center  Symbol  Z      XXX       XXY       XXZ       XYY       XYZ       XZZ       YYY       YYZ       YZZ       ZZZ
      1       N    7    0.0000   -0.0000   -0.0918   -0.0000    0.0000    0.0000   -0.0000   -0.0918   -0.0000   -0.1642
      2       N    7    0.0000   -0.0000    0.0918    0.0000   -0.0000    0.0000   -0.0000    0.0918    0.0000    0.1642

  MBIS Radial Moments:
   Center  Symbol  Z      [a0^2]      [a0^3]      [a0^4]
      1       N    7   12.293187   25.876187   64.871830
      2       N    7   12.293187   25.876187   64.871830

  MBIS Valence Widths: [a0]
   Center  Symbol  Z     Width
      1       N    7    0.441015
      2       N    7    0.441015

*** tstop() called on Mac.lan at Sun Aug 10 17:07:04 2025
Module time:
	user time   =       7.66 seconds =       0.13 minutes
	system time =       2.83 seconds =       0.05 minutes
	total time  =          1 seconds =       0.02 minutes
Total time:
	user time   =      48.81 seconds =       0.81 minutes
	system time =       6.54 seconds =       0.11 minutes
	total time  =         11 seconds =       0.18 minutes

    Psi4 stopped on: Sunday, 10 August 2025 05:07PM
    Psi4 wall time for execution: 0:00:11.96

*** Psi4 exiting successfully. Buy a developer a beer!
