                               Psi4 1.9.1 release

  ==> Input File <==

--------------------------------------------------------------------------
molecule {
0 2
N           0.000000           0.000000           0.000000
C           0.000000           0.000000           1.594674
}

set {
basis              cc-pvtz
reference          uks
maxiter            500
DAMPING_PERCENTAGE 1
E_CONVERGENCE      1.0E-8
D_CONVERGENCE      1.0E-8
DIIS_MAX_VECS      400
MBIS_MAXITER       8000
guess              read
}

E, wfn = energy('b3lyp', restart_file='last_wfn', return_wfn=True)
properties('b3lyp','MBIS_CHARGES', wfn=wfn)
wfn.to_file('last_wfn')
--------------------------------------------------------------------------

    Molecular point group: c2v
  Charge       = 0
  Multiplicity = 2
  Basis Set: CC-PVTZ
    Blend: CC-PVTZ
  Basis Set: (CC-PVTZ AUX)
    Blend: CC-PVTZ-JKFIT
  @DF-UKS Final Energy:   -92.58907411358150
    Total Energy =                        -92.5890741135815034
 Dipole X            :          0.0000000            0.0000000            0.0000000
 Dipole Y            :          0.0000000            0.0000000            0.0000000
 Dipole Z            :          0.4036135            0.0021375            0.4057509
 Magnitude           :                                                    0.4057509
    Molecular point group: c2v

    Geometry (in Angstrom), charge = 0, multiplicity = 2:

       Center              X                  Y                   Z               Mass
    ------------   -----------------  -----------------  -----------------  -----------------
         N            0.000000000000     0.000000000000    -0.735916376531    14.003074004430
         C            0.000000000000     0.000000000000     0.858757623469    12.000000000000

  Charge       = 0
  Multiplicity = 2
  Basis Set: CC-PVTZ
    Blend: CC-PVTZ
  Basis Set: (CC-PVTZ AUX)
    Blend: CC-PVTZ-JKFIT

    Orbital Energies [Eh]
    ---------------------

    Alpha Occupied:

       1A1   -14.455745     2A1   -10.381361     3A1    -0.836122
       4A1    -0.573350     5A1    -0.401978     1B1    -0.329960
       1B2    -0.329960

    Alpha Virtual:

       2B1    -0.130996     2B2    -0.130996     6A1     0.070394
       7A1     0.260979     3B1     0.292761     3B2     0.292761
       8A1     0.314807     9A1     0.433320     4B1     0.494520
       4B2     0.494520     1A2     0.630940    10A1     0.630940
       5B2     0.691881     5B1     0.691881    11A1     0.857053
      12A1     1.010711    13A1     1.072002     2A2     1.072002
       6B1     1.328251     6B2     1.328251    14A1     1.509114
       7B2     1.927638     7B1     1.927638    15A1     2.145579
       8B1     2.577442     8B2     2.577442     3A2     2.609026
      16A1     2.609026     9B1     2.626059     9B2     2.626059
      17A1     2.678758    18A1     2.885292     4A2     2.885293
      10B1     2.902935    10B2     2.902935    19A1     3.088411
      11B1     3.111506    11B2     3.111506    20A1     3.195254
      12B2     3.867454    12B1     3.867454    21A1     3.962145
       5A2     3.962147    22A1     4.004502    13B2     4.292420
      13B1     4.292420    23A1     4.428520     6A2     4.428521
      24A1     4.623780    14B1     4.787886    14B2     4.787886
      25A1     5.489125    26A1     6.855951

    Beta Occupied:

       1A1   -14.446925     2A1   -10.371342     3A1    -0.804836
       4A1    -0.513232     1B1    -0.322641     1B2    -0.322641

    Beta Virtual:

       5A1    -0.248307     2B1    -0.116660     2B2    -0.116660
       6A1     0.107312     7A1     0.297505     3B1     0.298280
       3B2     0.298280     8A1     0.338043     9A1     0.459931
       4B1     0.496396     4B2     0.496396    10A1     0.636615
       1A2     0.636615     5B2     0.718473     5B1     0.718473
      11A1     0.868580    12A1     1.048173    13A1     1.072126
       2A2     1.072126     6B1     1.353663     6B2     1.353663
      14A1     1.543898     7B2     1.937763     7B1     1.937763
      15A1     2.191439     8B1     2.600760     8B2     2.600760
       3A2     2.631901    16A1     2.631901     9B1     2.632899
       9B2     2.632899    17A1     2.725346    18A1     2.897582
       4A2     2.897583    10B1     2.923493    10B2     2.923493
      19A1     3.149080    11B1     3.151592    11B2     3.151592
      20A1     3.233563    12B2     3.863000    12B1     3.863000
      21A1     3.978495     5A2     3.978496    22A1     4.039564
      13B2     4.324880    13B1     4.324880    23A1     4.428402
       6A2     4.428402    24A1     4.688115    14B1     4.831657
      14B2     4.831657    25A1     5.519556    26A1     6.877702

    Final Occupation by Irrep:
             A1    A2    B1    B2
    DOCC [     4,    0,    1,    1 ]
    SOCC [     1,    0,    0,    0 ]
    NA   [     5,    0,    1,    1 ]
    NB   [     4,    0,    1,    1 ]

  @DF-UKS Final Energy:   -92.58907407318480

   => Energetics <=

    Nuclear Repulsion Energy =             13.9372955526584139
    One-Electron Energy =                -152.0348077925021357
    Two-Electron Energy =                  55.1155380665699823
    DFT Exchange-Correlation Energy =      -9.6070998999110646
    Empirical Dispersion Energy =           0.0000000000000000
    VV10 Nonlocal Energy =                  0.0000000000000000
    Total Energy =                        -92.5890740731848041

  UHF NO Occupations:
  HONO-2 :    1 B2 1.9990072
  HONO-1 :    4 A1 1.9962137
  HONO-0 :    5 A1 1.0000000
  LUNO+0 :    6 A1 0.0037863
  LUNO+1 :    2 B2 0.0009928
  LUNO+2 :    2 B1 0.0009928
  LUNO+3 :    7 A1 0.0002702

Computation Completed

Properties will be evaluated at   0.000000,   0.000000,   0.000000 [a0]

Properties computed using the B3LYP density matrix

 Multipole Moments:

 ------------------------------------------------------------------------------------
     Multipole            Electronic (a.u.)      Nuclear  (a.u.)        Total (a.u.)
 ------------------------------------------------------------------------------------

 L = 1.  Multiply by 2.5417464519 to convert [e a0] to [Debye]
 Dipole X            :          0.0000000            0.0000000            0.0000000
 Dipole Y            :          0.0000000            0.0000000            0.0000000
 Dipole Z            :          0.4036077            0.0021375            0.4057452
 Magnitude           :                                                    0.4057452

 L = 2.  Multiply by 1.3450342976 to convert [e a0^2] to [Debye ang]
 Quadrupole XX       :         -9.0042363            0.0000000           -9.0042363
 Quadrupole XY       :          0.0000000            0.0000000            0.0000000
 Quadrupole XZ       :          0.0000000            0.0000000            0.0000000
 Quadrupole YY       :         -9.0042363            0.0000000           -9.0042363
 Quadrupole YZ       :          0.0000000            0.0000000            0.0000000
 Quadrupole ZZ       :        -36.7035705           29.3391485           -7.3644220
 Traceless XX        :          9.2331114           -9.7797162           -0.5466048
 Traceless YY        :          9.2331114           -9.7797162           -0.5466048
 Traceless ZZ        :        -18.4662228           19.5594323            1.0932095

 ------------------------------------------------------------------------------------
  ==> Computing MBIS Charges <==

  Electron Count from Grid (Expected Number): 13.00000 (13.00000)
  Difference: -0.00000

  MBIS Charges: (a.u.)
   Center  Symbol  Z      Pop.       Charge
      1       N    7    7.173081   -0.173081
      2       C    6    5.826919    0.173081

  MBIS Dipoles: [e a0]
   Center  Symbol  Z        X           Y           Z
      1       N    7   -0.000000    0.000000   -0.280178
      2       C    6   -0.000000    0.000000    0.164344

  MBIS Quadrupoles: [e a0^2]
   Center  Symbol  Z      XX        XY        XZ        YY        YZ        ZZ
      1       N    7   -4.6004    0.0000   -0.0000   -4.6004    0.0000   -4.3838
      2       C    6   -4.4038    0.0000    0.0000   -4.4038    0.0000   -4.4144

  MBIS Octupoles: [e a0^3]
   Center  Symbol  Z      XXX       XXY       XXZ       XYY       XYZ       XZZ       YYY       YYZ       YZZ       ZZZ
      1       N    7   -0.0000   -0.0000   -0.4529    0.0000    0.0000    0.0000   -0.0000   -0.4529   -0.0000   -1.2159
      2       C    6   -0.0000   -0.0000    0.4578    0.0000   -0.0000   -0.0000    0.0000    0.4578    0.0000    1.0053

  MBIS Radial Moments:
   Center  Symbol  Z      [a0^2]      [a0^3]      [a0^4]
      1       N    7   13.584642   29.776040   77.699785
      2       C    6   13.222010   32.495851   94.836769

  MBIS Valence Widths: [a0]
   Center  Symbol  Z     Width
      1       N    7    0.456572
      2       C    6    0.520805

*** tstop() called on Mac.lan at Sun Aug 10 17:15:44 2025
Module time:
	user time   =       3.32 seconds =       0.06 minutes
	system time =       2.41 seconds =       0.04 minutes
	total time  =          1 seconds =       0.02 minutes
Total time:
	user time   =      20.91 seconds =       0.35 minutes
	system time =       4.45 seconds =       0.07 minutes
	total time  =          3 seconds =       0.05 minutes

    Psi4 stopped on: Sunday, 10 August 2025 05:15PM
    Psi4 wall time for execution: 0:00:02.45

*** Psi4 exiting successfully. Buy a developer a beer!
