                               Psi4 1.9.1 release

  ==> Input File <==

--------------------------------------------------------------------------
molecule {
0 1
O           0.000000           0.000000           0.000000
C           0.000000           0.000000           0.696362
}

set {
basis              cc-pvtz
reference          uks
maxiter            500
DAMPING_PERCENTAGE 1
E_CONVERGENCE      1.0E-8
D_CONVERGENCE      1.0E-8
DIIS_MAX_VECS      400
MBIS_MAXITER       8000
guess              read
}

E, wfn = energy('b3lyp', restart_file='last_wfn', return_wfn=True)
properties('b3lyp','MBIS_CHARGES', wfn=wfn)
wfn.to_file('last_wfn')
--------------------------------------------------------------------------

    Molecular point group: c2v
  Charge       = 0
  Multiplicity = 1
  Basis Set: CC-PVTZ
    Blend: CC-PVTZ
  Basis Set: (CC-PVTZ AUX)
    Blend: CC-PVTZ-JKFIT
  @DF-UKS Final Energy:  -112.01562080136689
    Total Energy =                       -112.0156208013668930
 Dipole X            :          0.0000000            0.0000000            0.0000000
 Dipole Y            :          0.0000000            0.0000000            0.0000000
 Dipole Z            :         -0.5354927           -0.0014343           -0.5369270
 Magnitude           :                                                    0.5369270
    Molecular point group: c2v

    Geometry (in Angstrom), charge = 0, multiplicity = 1:

       Center              X                  Y                   Z               Mass
    ------------   -----------------  -----------------  -----------------  -----------------
         O            0.000000000000     0.000000000000    -0.298495070035    15.994914619570
         C            0.000000000000     0.000000000000     0.397866929965    12.000000000000

  Charge       = 0
  Multiplicity = 1
  Basis Set: CC-PVTZ
    Blend: CC-PVTZ
  Basis Set: (CC-PVTZ AUX)
    Blend: CC-PVTZ-JKFIT

    Orbital Energies [Eh]
    ---------------------

    Alpha Occupied:

       1A1   -19.209187     2A1   -10.210208     3A1    -1.300091
       1B2    -0.710147     1B1    -0.710147     4A1    -0.562393
       5A1    -0.325632

    Alpha Virtual:

       2B2     0.134447     2B1     0.134447     6A1     0.170791
       7A1     0.300830     3B2     0.329131     3B1     0.329131
       8A1     0.553341     4B2     0.624478     4B1     0.624478
       9A1     0.634150     1A2     0.634150    10A1     0.881645
       5B2     1.086944     5B1     1.086944    11A1     1.345885
       6B2     1.599435     6B1     1.599435    12A1     1.636924
       2A2     1.636924    13A1     1.782611    14A1     2.341466
       7B2     2.352284     7B1     2.352284     8B1     2.635191
       8B2     2.635191    15A1     2.808983     3A2     2.875505
      16A1     2.875505     9B2     3.079057     9B1     3.079057
       4A2     3.206983    17A1     3.206983    18A1     3.227047
      10B2     4.037906    10B1     4.037906    11B2     4.265385
      11B1     4.265385    19A1     4.479844    12B1     5.277557
      12B2     5.277557    20A1     5.874547    21A1     6.204457
       5A2     6.204458    22A1     6.535745     6A2     6.535745
      13B2     6.629943    13B1     6.629943    23A1     6.680515
      24A1     7.661229    14B2     7.869170    14B1     7.869170
      25A1    10.256621    26A1    17.861006

    Beta Occupied:

       1A1   -19.209187     2A1   -10.210208     3A1    -1.300091
       1B2    -0.710147     1B1    -0.710147     4A1    -0.562393
       5A1    -0.325632

    Beta Virtual:

       2B2     0.134447     2B1     0.134447     6A1     0.170791
       7A1     0.300830     3B2     0.329131     3B1     0.329131
       8A1     0.553341     4B2     0.624478     4B1     0.624478
       9A1     0.634150     1A2     0.634150    10A1     0.881645
       5B2     1.086944     5B1     1.086944    11A1     1.345885
       6B2     1.599435     6B1     1.599435    12A1     1.636924
       2A2     1.636924    13A1     1.782611    14A1     2.341466
       7B2     2.352284     7B1     2.352284     8B1     2.635191
       8B2     2.635191    15A1     2.808983     3A2     2.875505
      16A1     2.875505     9B2     3.079057     9B1     3.079057
       4A2     3.206983    17A1     3.206983    18A1     3.227047
      10B2     4.037906    10B1     4.037906    11B2     4.265385
      11B1     4.265385    19A1     4.479844    12B1     5.277557
      12B2     5.277557    20A1     5.874547    21A1     6.204457
       5A2     6.204458    22A1     6.535745     6A2     6.535745
      13B2     6.629943    13B1     6.629943    23A1     6.680515
      24A1     7.661229    14B2     7.869170    14B1     7.869170
      25A1    10.256621    26A1    17.861006

    Final Occupation by Irrep:
             A1    A2    B1    B2
    DOCC [     5,    0,    1,    1 ]
    SOCC [     0,    0,    0,    0 ]
    NA   [     5,    0,    1,    1 ]
    NB   [     5,    0,    1,    1 ]

  @DF-UKS Final Energy:  -112.01562080250987

   => Energetics <=

    Nuclear Repulsion Energy =             36.4760083292310640
    One-Electron Energy =                -222.3997483133492779
    Two-Electron Energy =                  85.7932071657150601
    DFT Exchange-Correlation Energy =     -11.8850879841067165
    Empirical Dispersion Energy =           0.0000000000000000
    VV10 Nonlocal Energy =                  0.0000000000000000
    Total Energy =                       -112.0156208025098721

  UHF NO Occupations:
  HONO-2 :    1 B1 2.0000000
  HONO-1 :    4 A1 2.0000000
  HONO-0 :    5 A1 2.0000000
  LUNO+0 :    6 A1 0.0000000
  LUNO+1 :    7 A1 0.0000000
  LUNO+2 :    8 A1 0.0000000
  LUNO+3 :    9 A1 0.0000000

Computation Completed

Properties will be evaluated at   0.000000,   0.000000,   0.000000 [a0]

Properties computed using the B3LYP density matrix

 Multipole Moments:

 ------------------------------------------------------------------------------------
     Multipole            Electronic (a.u.)      Nuclear  (a.u.)        Total (a.u.)
 ------------------------------------------------------------------------------------

 L = 1.  Multiply by 2.5417464519 to convert [e a0] to [Debye]
 Dipole X            :          0.0000000            0.0000000            0.0000000
 Dipole Y            :          0.0000000            0.0000000            0.0000000
 Dipole Z            :         -0.5354927           -0.0014343           -0.5369270
 Magnitude           :                                                    0.5369270

 L = 2.  Multiply by 1.3450342976 to convert [e a0^2] to [Debye ang]
 Quadrupole XX       :         -6.5667470            0.0000000           -6.5667470
 Quadrupole XY       :          0.0000000            0.0000000            0.0000000
 Quadrupole XZ       :          0.0000000            0.0000000            0.0000000
 Quadrupole YY       :         -6.5667470            0.0000000           -6.5667470
 Quadrupole YZ       :          0.0000000            0.0000000            0.0000000
 Quadrupole ZZ       :        -14.5332592            5.9371917           -8.5960674
 Traceless XX        :          2.6555041           -1.9790639            0.6764401
 Traceless YY        :          2.6555041           -1.9790639            0.6764401
 Traceless ZZ        :         -5.3110081            3.9581278           -1.3528803

 ------------------------------------------------------------------------------------
  ==> Computing MBIS Charges <==

  Electron Count from Grid (Expected Number): 14.00000 (14.00000)
  Difference:  0.00000

  MBIS Charges: (a.u.)
   Center  Symbol  Z      Pop.       Charge
      1       O    8    7.842140    0.157860
      2       C    6    6.157861   -0.157861

  MBIS Dipoles: [e a0]
   Center  Symbol  Z        X           Y           Z
      1       O    8    0.000000   -0.000000    0.000835
      2       C    6   -0.000000    0.000000   -0.330028

  MBIS Quadrupoles: [e a0^2]
   Center  Symbol  Z      XX        XY        XZ        YY        YZ        ZZ
      1       O    8   -2.7274   -0.0000   -0.0000   -2.7274    0.0000   -3.1781
      2       C    6   -3.8394    0.0000   -0.0000   -3.8394    0.0000   -4.8818

  MBIS Octupoles: [e a0^3]
   Center  Symbol  Z      XXX       XXY       XXZ       XYY       XYZ       XZZ       YYY       YYZ       YZZ       ZZZ
      1       O    8    0.0000    0.0000    0.0593   -0.0000    0.0000    0.0000   -0.0000    0.0593    0.0000    0.3390
      2       C    6   -0.0000    0.0000   -0.6678   -0.0000    0.0000    0.0000    0.0000   -0.6678    0.0000   -1.6195

  MBIS Radial Moments:
   Center  Symbol  Z      [a0^2]      [a0^3]      [a0^4]
      1       O    8    8.632803   14.228209   28.259701
      2       C    6   12.560537   29.606215   83.206563

  MBIS Valence Widths: [a0]
   Center  Symbol  Z     Width
      1       O    8    0.338973
      2       C    6    0.482447

*** tstop() called on Mac.lan at Sun Aug 10 17:17:29 2025
Module time:
	user time   =       3.66 seconds =       0.06 minutes
	system time =       2.73 seconds =       0.05 minutes
	total time  =          1 seconds =       0.02 minutes
Total time:
	user time   =      39.76 seconds =       0.66 minutes
	system time =       8.07 seconds =       0.13 minutes
	total time  =          6 seconds =       0.10 minutes

    Psi4 stopped on: Sunday, 10 August 2025 05:17PM
    Psi4 wall time for execution: 0:00:05.23

*** Psi4 exiting successfully. Buy a developer a beer!
