                               Psi4 1.9.1 release

  ==> Input File <==

--------------------------------------------------------------------------
molecule {
0 2
O           0.000000           0.000000           0.000000
N           0.000000           0.000000           1.192726
}

set {
basis              cc-pvtz
reference          uks
maxiter            500
DAMPING_PERCENTAGE 1
E_CONVERGENCE      1.0E-8
D_CONVERGENCE      1.0E-8
DIIS_MAX_VECS      400
MBIS_MAXITER       8000
guess              SAP
}

E, wfn = energy('b3lyp', return_wfn=True)
properties('b3lyp','MBIS_CHARGES', wfn=wfn)
wfn.to_file('last_wfn')
--------------------------------------------------------------------------

    Molecular point group: c2v
  Charge       = 0
  Multiplicity = 2
  Basis Set: CC-PVTZ
    Blend: CC-PVTZ
  Basis Set: (CC-PVTZ AUX)
    Blend: CC-PVTZ-JKFIT
  @DF-UKS Final Energy:  -129.93666703512170
    Total Energy =                       -129.9366670351217010
 Dipole X            :          0.0000000            0.0000000            0.0000000
 Dipole Y            :          0.0000000            0.0000000            0.0000000
 Dipole Z            :          0.0087871           -0.0045224            0.0042647
 Magnitude           :                                                    0.0042647
    Molecular point group: c2v

    Geometry (in Angstrom), charge = 0, multiplicity = 2:

       Center              X                  Y                   Z               Mass
    ------------   -----------------  -----------------  -----------------  -----------------
         O            0.000000000000     0.000000000000    -0.556765010293    15.994914619570
         N            0.000000000000     0.000000000000     0.635960989707    14.003074004430

  Charge       = 0
  Multiplicity = 2
  Basis Set: CC-PVTZ
    Blend: CC-PVTZ
  Basis Set: (CC-PVTZ AUX)
    Blend: CC-PVTZ-JKFIT

    Orbital Energies [Eh]
    ---------------------

    Alpha Occupied:

       1A1   -19.271730     2A1   -14.468880     3A1    -1.219479
       4A1    -0.700411     1B1    -0.526587     1B2    -0.498110
       5A1    -0.486998     2B1    -0.236707

    Alpha Virtual:

       2B2    -0.125366     6A1     0.223016     3B1     0.413133
       3B2     0.420198     7A1     0.445654     8A1     0.478072
       9A1     0.556819     4B1     0.593911     4B2     0.600697
       1A2     0.924872    10A1     0.926707     5B1     1.100072
       5B2     1.100418    11A1     1.174357     2A2     1.506413
      12A1     1.507580    13A1     1.594370     6B1     1.971956
       6B2     1.973615    14A1     2.174362     7B1     2.797243
       7B2     2.814553    15A1     3.045824     8B1     3.496288
       8B2     3.504454     3A2     3.746488    16A1     3.748182
       9B1     3.780438     9B2     3.781014    17A1     3.968138
      10B1     4.032064    10B2     4.032820    18A1     4.182575
       4A2     4.344292    19A1     4.350191    20A1     4.674309
      11B1     4.695459    11B2     4.700480    12B1     5.044322
      12B2     5.044440     5A2     5.456465    21A1     5.457541
      22A1     6.086747     6A2     6.144151    23A1     6.146280
      13B1     6.282976    13B2     6.285867    24A1     6.796266
      14B2     6.814734    14B1     6.816145    25A1     7.160255
      26A1    12.257129

    Beta Occupied:

       1A1   -19.261465     2A1   -14.452785     3A1    -1.197982
       4A1    -0.662699     1B2    -0.488826     5A1    -0.464385
       1B1    -0.453013

    Beta Virtual:

       2B2    -0.109623     2B1    -0.067502     6A1     0.232360
       3B2     0.426465     3B1     0.449094     7A1     0.463627
       8A1     0.488894     9A1     0.564588     4B2     0.604083
       4B1     0.621309     1A2     0.952134    10A1     0.952220
       5B2     1.102982     5B1     1.130255    11A1     1.183443
      12A1     1.528396     2A2     1.528646    13A1     1.608260
       6B2     1.976530     6B1     1.999918    14A1     2.186700
       7B2     2.828168     7B1     2.868355    15A1     3.059468
       8B2     3.510471     8B1     3.541027    16A1     3.770949
       3A2     3.771017     9B2     3.826277     9B1     3.826353
      17A1     3.986536    10B2     4.037925    10B1     4.069658
      18A1     4.200058     4A2     4.411524    19A1     4.412100
      20A1     4.691843    11B2     4.705999    11B1     4.741569
      12B2     5.068003    12B1     5.068012     5A2     5.475163
      21A1     5.475249    22A1     6.099617     6A2     6.180884
      23A1     6.181007    13B2     6.289250    13B1     6.318847
      24A1     6.810224    14B2     6.817336    14B1     6.845207
      25A1     7.176498    26A1    12.275914

    Final Occupation by Irrep:
             A1    A2    B1    B2
    DOCC [     5,    0,    1,    1 ]
    SOCC [     0,    0,    1,    0 ]
    NA   [     5,    0,    2,    1 ]
    NB   [     5,    0,    1,    1 ]

  @DF-UKS Final Energy:  -129.93666703512170

   => Energetics <=

    Nuclear Repulsion Energy =             24.8455418910294590
    One-Electron Energy =                -226.2678383348670650
    Two-Electron Energy =                  83.8742598187995156
    DFT Exchange-Correlation Energy =     -12.3886304100836107
    Empirical Dispersion Energy =           0.0000000000000000
    VV10 Nonlocal Energy =                  0.0000000000000000
    Total Energy =                       -129.9366670351217010

  UHF NO Occupations:
  HONO-2 :    5 A1 1.9995017
  HONO-1 :    1 B1 1.9991125
  HONO-0 :    2 B1 1.0000000
  LUNO+0 :    3 B1 0.0008875
  LUNO+1 :    6 A1 0.0004983
  LUNO+2 :    2 B2 0.0001992
  LUNO+3 :    7 A1 0.0000925

Computation Completed

Properties will be evaluated at   0.000000,   0.000000,   0.000000 [a0]

Properties computed using the B3LYP density matrix

 Multipole Moments:

 ------------------------------------------------------------------------------------
     Multipole            Electronic (a.u.)      Nuclear  (a.u.)        Total (a.u.)
 ------------------------------------------------------------------------------------

 L = 1.  Multiply by 2.5417464519 to convert [e a0] to [Debye]
 Dipole X            :          0.0000000            0.0000000            0.0000000
 Dipole Y            :          0.0000000            0.0000000            0.0000000
 Dipole Z            :          0.0087871           -0.0045224            0.0042647
 Magnitude           :                                                    0.0042647

 L = 2.  Multiply by 1.3450342976 to convert [e a0^2] to [Debye ang]
 Quadrupole XX       :         -7.9709364            0.0000000           -7.9709364
 Quadrupole XY       :          0.0000000            0.0000000            0.0000000
 Quadrupole XZ       :          0.0000000            0.0000000            0.0000000
 Quadrupole YY       :         -7.1714469            0.0000000           -7.1714469
 Quadrupole YZ       :          0.0000000            0.0000000            0.0000000
 Quadrupole ZZ       :        -27.3274006           18.9660070           -8.3613936
 Traceless XX        :          6.1856583           -6.3220023           -0.1363441
 Traceless YY        :          6.9851477           -6.3220023            0.6631454
 Traceless ZZ        :        -13.1708060           12.6440047           -0.5268013

 ------------------------------------------------------------------------------------
  ==> Computing MBIS Charges <==

  Electron Count from Grid (Expected Number): 15.00000 (15.00000)
  Difference:  0.00000

  MBIS Charges: (a.u.)
   Center  Symbol  Z      Pop.       Charge
      1       O    8    8.054951   -0.054951
      2       N    7    6.945050    0.054950

  MBIS Dipoles: [e a0]
   Center  Symbol  Z        X           Y           Z
      1       O    8    0.000000    0.000000    0.036042
      2       N    7    0.000000   -0.000000   -0.155631

  MBIS Quadrupoles: [e a0^2]
   Center  Symbol  Z      XX        XY        XZ        YY        YZ        ZZ
      1       O    8   -3.7875    0.0000   -0.0000   -3.5329   -0.0000   -3.7814
      2       N    7   -4.1834    0.0000    0.0000   -3.6386    0.0000   -4.1486

  MBIS Octupoles: [e a0^3]
   Center  Symbol  Z      XXX       XXY       XXZ       XYY       XYZ       XZZ       YYY       YYZ       YZZ       ZZZ
      1       O    8   -0.0000   -0.0000    0.0946    0.0000   -0.0000    0.0000   -0.0000    0.0375    0.0000   -0.0619
      2       N    7    0.0000   -0.0000   -0.2403    0.0000    0.0000    0.0000   -0.0000   -0.0167    0.0000    0.0265

  MBIS Radial Moments:
   Center  Symbol  Z      [a0^2]      [a0^3]      [a0^4]
      1       O    8   11.101788   20.546282   45.624858
      2       N    7   11.970610   25.077945   62.653777

  MBIS Valence Widths: [a0]
   Center  Symbol  Z     Width
      1       O    8    0.380929
      2       N    7    0.436793

*** tstop() called on Mac.lan at Sun Aug 10 17:20:36 2025
Module time:
	user time   =      15.83 seconds =       0.26 minutes
	system time =       2.48 seconds =       0.04 minutes
	total time  =          1 seconds =       0.02 minutes
Total time:
	user time   =      31.49 seconds =       0.52 minutes
	system time =       4.92 seconds =       0.08 minutes
	total time  =          3 seconds =       0.05 minutes

    Psi4 stopped on: Sunday, 10 August 2025 05:20PM
    Psi4 wall time for execution: 0:00:03.46

*** Psi4 exiting successfully. Buy a developer a beer!
