                               Psi4 1.9.1 release

  ==> Input File <==

--------------------------------------------------------------------------
molecule {
0 3
C           0.000000           0.000000           0.000000
C           0.000000           0.000000           1.665784
}

set {
basis              cc-pvtz
reference          uks
maxiter            500
DAMPING_PERCENTAGE 1
E_CONVERGENCE      1.0E-8
D_CONVERGENCE      1.0E-8
DIIS_MAX_VECS      400
MBIS_MAXITER       8000
guess              read
}

E, wfn = energy('b3lyp', restart_file='last_wfn', return_wfn=True)
properties('b3lyp','MBIS_CHARGES', wfn=wfn)
wfn.to_file('last_wfn')
--------------------------------------------------------------------------

    Molecular point group: d2h
  Charge       = 0
  Multiplicity = 3
  Basis Set: CC-PVTZ
    Blend: CC-PVTZ
  Basis Set: (CC-PVTZ AUX)
    Blend: CC-PVTZ-JKFIT
  @DF-UKS Final Energy:   -75.86671744847378
    Total Energy =                        -75.8667174484737785
 Dipole X            :          0.0000000            0.0000000            0.0000000
 Dipole Y            :          0.0000000            0.0000000            0.0000000
 Dipole Z            :          0.0000000            0.0000000            0.0000000
 Magnitude           :                                                    0.0000000
    Molecular point group: d2h

    Geometry (in Angstrom), charge = 0, multiplicity = 3:

       Center              X                  Y                   Z               Mass
    ------------   -----------------  -----------------  -----------------  -----------------
         C            0.000000000000     0.000000000000    -0.832892000000    12.000000000000
         C            0.000000000000     0.000000000000     0.832892000000    12.000000000000

  Charge       = 0
  Multiplicity = 3
  Basis Set: CC-PVTZ
    Blend: CC-PVTZ
  Basis Set: (CC-PVTZ AUX)
    Blend: CC-PVTZ-JKFIT

    Orbital Energies [Eh]
    ---------------------

    Alpha Occupied:

       1Ag   -10.338686     1B1u  -10.338478     2Ag    -0.726980
       2B1u   -0.506011     3Ag    -0.349312     1B3u   -0.319301
       1B2u   -0.289858

    Alpha Virtual:

       1B2g   -0.127143     1B3g   -0.099680     3B1u    0.091059
       4B1u    0.264336     2B3u    0.273684     4Ag     0.285173
       2B2u    0.288454     5Ag     0.327919     2B2g    0.338762
       2B3g    0.351310     1B1g    0.565564     6Ag     0.566045
       3B3u    0.602428     5B1u    0.616876     3B2u    0.624437
       1Au     0.773493     6B1u    0.773873     3B2g    1.045021
       7Ag     1.046910     3B3g    1.062173     7B1u    1.083170
       4B3u    1.848619     4B2u    1.870926     8Ag     1.936227
       4B2g    1.990768     4B3g    2.015783     5B3u    2.370054
       9Ag     2.392784     2B1g    2.393983     5B2u    2.394356
      10Ag     2.443376     8B1u    2.490569     6B3u    2.576815
       6B2u    2.576930     5B2g    2.700099     5B3g    2.700185
       3B1g    2.871573    11Ag     2.871698     9B1u    2.892753
       2Au     2.893341    10B1u    2.949063     6B2g    3.011211
       6B3g    3.033993     3Au     3.063299    11B1u    3.064434
       7B3u    3.065944     7B2u    3.089682    12B1u    3.391472
      12Ag     3.555943     7B2g    3.714800     7B3g    3.737657
      13Ag     3.911059    13B1u    6.237429

    Beta Occupied:

       1Ag   -10.323542     1B1u  -10.323463     2Ag    -0.664432
       2B1u   -0.425288     1B2u   -0.273815

    Beta Virtual:

       3Ag    -0.200889     1B3u   -0.186892     1B3g   -0.080721
       1B2g   -0.048648     3B1u    0.129762     2B2u    0.294228
       2B3u    0.305019     4Ag     0.313439     4B1u    0.316697
       5Ag     0.356112     2B3g    0.356787     2B2g    0.365546
       1B1g    0.590403     6Ag     0.592598     5B1u    0.636974
       3B2u    0.651840     3B3u    0.659991     1Au     0.796213
       6B1u    0.798188     3B3g    1.085271     3B2g    1.088979
       7Ag     1.090420     7B1u    1.122851     4B2u    1.885433
       4B3u    1.898938     8Ag     1.988314     4B3g    2.026254
       4B2g    2.037993     5B2u    2.422469     5B3u    2.432120
       2B1g    2.436322     9Ag     2.438478    10Ag     2.498699
       8B1u    2.535515     6B2u    2.607163     6B3u    2.607912
       5B3g    2.730061     5B2g    2.730812     3B1g    2.909493
      11Ag     2.913918     2Au     2.925402     9B1u    2.929209
      10B1u    3.011950     6B3g    3.073638     6B2g    3.088702
       3Au     3.108625    11B1u    3.111563     7B2u    3.133559
       7B3u    3.146221    12B1u    3.445499    12Ag     3.613885
       7B3g    3.772237     7B2g    3.778945    13Ag     3.948237
      13B1u    6.270416

    Final Occupation by Irrep:
             Ag   B1g   B2g   B3g    Au   B1u   B2u   B3u
    DOCC [     2,    0,    0,    0,    0,    2,    1,    0 ]
    SOCC [     1,    0,    0,    0,    0,    0,    0,    1 ]
    NA   [     3,    0,    0,    0,    0,    2,    1,    1 ]
    NB   [     2,    0,    0,    0,    0,    2,    1,    0 ]

  @DF-UKS Final Energy:   -75.86671744847017

   => Energetics <=

    Nuclear Repulsion Energy =             11.4362844066937850
    One-Electron Energy =                -123.6536576434181427
    Two-Electron Energy =                  44.7654027399775885
    DFT Exchange-Correlation Energy =      -8.4147469517234050
    Empirical Dispersion Energy =           0.0000000000000000
    VV10 Nonlocal Energy =                  0.0000000000000000
    Total Energy =                        -75.8667174484701690

  UHF NO Occupations:
  HONO-2 :    2B1u 1.9977287
  HONO-1 :    1B3u 1.0000000
  HONO-0 :    3 Ag 1.0000000
  LUNO+0 :    3B1u 0.0022713
  LUNO+1 :    4 Ag 0.0004309
  LUNO+2 :    2B2u 0.0001774
  LUNO+3 :    4B1u 0.0000006

Computation Completed

Properties will be evaluated at   0.000000,   0.000000,   0.000000 [a0]

Properties computed using the B3LYP density matrix

 Multipole Moments:

 ------------------------------------------------------------------------------------
     Multipole            Electronic (a.u.)      Nuclear  (a.u.)        Total (a.u.)
 ------------------------------------------------------------------------------------

 L = 1.  Multiply by 2.5417464519 to convert [e a0] to [Debye]
 Dipole X            :          0.0000000            0.0000000            0.0000000
 Dipole Y            :          0.0000000            0.0000000            0.0000000
 Dipole Z            :          0.0000000            0.0000000            0.0000000
 Magnitude           :                                                    0.0000000

 L = 2.  Multiply by 1.3450342976 to convert [e a0^2] to [Debye ang]
 Quadrupole XX       :         -8.4827006            0.0000000           -8.4827006
 Quadrupole XY       :          0.0000000            0.0000000            0.0000000
 Quadrupole XZ       :          0.0000000            0.0000000            0.0000000
 Quadrupole YY       :        -10.1236763            0.0000000          -10.1236763
 Quadrupole YZ       :          0.0000000            0.0000000            0.0000000
 Quadrupole ZZ       :        -38.3949432           29.7273613           -8.6675818
 Traceless XX        :         10.5177394           -9.9091204            0.6086190
 Traceless YY        :          8.8767637           -9.9091204           -1.0323567
 Traceless ZZ        :        -19.3945031           19.8182409            0.4237377

 ------------------------------------------------------------------------------------
  ==> Computing MBIS Charges <==

  Electron Count from Grid (Expected Number): 12.00000 (12.00000)
  Difference:  0.00000

  MBIS Charges: (a.u.)
   Center  Symbol  Z      Pop.       Charge
      1       C    6    6.000000   -0.000000
      2       C    6    6.000000   -0.000000

  MBIS Dipoles: [e a0]
   Center  Symbol  Z        X           Y           Z
      1       C    6   -0.000000   -0.000000   -0.144351
      2       C    6   -0.000000    0.000000    0.144351

  MBIS Quadrupoles: [e a0^2]
   Center  Symbol  Z      XX        XY        XZ        YY        YZ        ZZ
      1       C    6   -4.2414    0.0000   -0.0000   -5.0618   -0.0000   -4.7882
      2       C    6   -4.2414    0.0000    0.0000   -5.0618    0.0000   -4.7882

  MBIS Octupoles: [e a0^3]
   Center  Symbol  Z      XXX       XXY       XXZ       XYY       XYZ       XZZ       YYY       YYZ       YZZ       ZZZ
      1       C    6   -0.0000   -0.0000   -0.2303   -0.0000    0.0000   -0.0000    0.0000   -0.4924    0.0000   -0.9297
      2       C    6   -0.0000   -0.0000    0.2303   -0.0000   -0.0000   -0.0000    0.0000    0.4924    0.0000    0.9297

  MBIS Radial Moments:
   Center  Symbol  Z      [a0^2]      [a0^3]      [a0^4]
      1       C    6   14.091377   35.124318   104.220835
      2       C    6   14.091377   35.124318   104.220835

  MBIS Valence Widths: [a0]
   Center  Symbol  Z     Width
      1       C    6    0.526564
      2       C    6    0.526564

*** tstop() called on Mac.lan at Sun Aug 10 17:04:39 2025
Module time:
	user time   =       3.55 seconds =       0.06 minutes
	system time =       2.38 seconds =       0.04 minutes
	total time  =          1 seconds =       0.02 minutes
Total time:
	user time   =      19.33 seconds =       0.32 minutes
	system time =       4.25 seconds =       0.07 minutes
	total time  =          3 seconds =       0.05 minutes

    Psi4 stopped on: Sunday, 10 August 2025 05:04PM
    Psi4 wall time for execution: 0:00:02.31

*** Psi4 exiting successfully. Buy a developer a beer!
