                               Psi4 1.9.1 release

  ==> Input File <==

--------------------------------------------------------------------------
molecule {
0 3
O           0.000000           0.000000           0.000000
O           0.000000           0.000000           1.299341
}

set {
basis              cc-pvtz
reference          uks
maxiter            500
DAMPING_PERCENTAGE 1
E_CONVERGENCE      1.0E-8
D_CONVERGENCE      1.0E-8
DIIS_MAX_VECS      400
MBIS_MAXITER       8000
guess              read
}

E, wfn = energy('b3lyp', restart_file='last_wfn', return_wfn=True)
properties('b3lyp','MBIS_CHARGES', wfn=wfn)
wfn.to_file('last_wfn')
--------------------------------------------------------------------------

    Molecular point group: d2h
  Charge       = 0
  Multiplicity = 3
  Basis Set: CC-PVTZ
    Blend: CC-PVTZ
  Basis Set: (CC-PVTZ AUX)
    Blend: CC-PVTZ-JKFIT
  @DF-UKS Final Energy:  -150.37078386405346
    Total Energy =                       -150.3707838640534646
 Dipole X            :          0.0000000            0.0000000            0.0000000
 Dipole Y            :          0.0000000            0.0000000            0.0000000
 Dipole Z            :          0.0000000            0.0000000            0.0000000
 Magnitude           :                                                    0.0000000
    Molecular point group: d2h

    Geometry (in Angstrom), charge = 0, multiplicity = 3:

       Center              X                  Y                   Z               Mass
    ------------   -----------------  -----------------  -----------------  -----------------
         O            0.000000000000     0.000000000000    -0.649670500000    15.994914619570
         O            0.000000000000     0.000000000000     0.649670500000    15.994914619570

  Charge       = 0
  Multiplicity = 3
  Basis Set: CC-PVTZ
    Blend: CC-PVTZ
  Basis Set: (CC-PVTZ AUX)
    Blend: CC-PVTZ-JKFIT

    Orbital Energies [Eh]
    ---------------------

    Alpha Occupied:

       1Ag   -19.300510     1B1u  -19.300396     2Ag    -1.244782
       2B1u   -0.870299     1B2u   -0.541586     1B3u   -0.541586
       3Ag    -0.541047     1B3g   -0.340267     1B2g   -0.340267

    Alpha Virtual:

       3B1u    0.080178     4B1u    0.474017     2B2u    0.501643
       2B3u    0.501643     4Ag     0.559864     2B3g    0.608722
       2B2g    0.608722     5Ag     0.665884     5B1u    1.192639
       6Ag     1.226963     1B1g    1.226963     3B3u    1.240210
       3B2u    1.240210     6B1u    1.563277     1Au     1.563278
       7Ag     1.966128     3B3g    2.089603     3B2g    2.089603
       7B1u    2.147761     4B2u    3.369175     4B3u    3.369175
       8Ag     3.490670     4B3g    3.617519     4B2g    3.617519
       8B1u    4.570762     5B3u    4.606157     5B2u    4.606157
       9Ag     4.626604     2B1g    4.626604    10Ag     4.754734
       6B2u    4.927190     6B3u    4.927190     5B3g    5.081070
       5B2g    5.081070     9B1u    5.481090     2Au     5.481091
      11Ag     5.985508     3B1g    5.985519     6B2g    6.083519
       6B3g    6.083519    10B1u    6.165581    11B1u    6.179844
       3Au     6.179855     7B3u    6.247882     7B2u    6.247882
      12B1u    6.371463    12Ag     6.724865     7B2g    6.957104
       7B3g    6.957104    13Ag     7.531122    13B1u   10.410543

    Beta Occupied:

       1Ag   -19.270139     1B1u  -19.269911     2Ag    -1.184230
       2B1u   -0.780731     3Ag    -0.505422     1B2u   -0.437114
       1B3u   -0.437114

    Beta Virtual:

       1B3g   -0.146822     1B2g   -0.146822     3B1u    0.120703
       4B1u    0.488579     2B2u    0.539476     2B3u    0.539476
       4Ag     0.570665     2B3g    0.649135     2B2g    0.649135
       5Ag     0.686782     5B1u    1.225874     3B3u    1.267388
       3B2u    1.267388     1B1g    1.270763     6Ag     1.270763
       1Au     1.623437     6B1u    1.623437     7Ag     1.998131
       3B3g    2.124995     3B2g    2.124995     7B1u    2.166666
       4B2u    3.443226     4B3u    3.443226     8Ag     3.510757
       4B3g    3.694830     4B2g    3.694830     8B1u    4.605038
       5B3u    4.640245     5B2u    4.640245     9Ag     4.670004
       2B1g    4.670004    10Ag     4.789038     6B2u    4.999377
       6B3u    4.999377     5B3g    5.155667     5B2g    5.155667
       9B1u    5.535694     2Au     5.535696    11Ag     6.095357
       3B1g    6.095367     6B2g    6.139871     6B3g    6.139871
      10B1u    6.211194    11B1u    6.284562     3Au     6.284573
       7B3u    6.307190     7B2u    6.307190    12B1u    6.399501
      12Ag     6.754640     7B2g    6.996748     7B3g    6.996748
      13Ag     7.585751    13B1u   10.451911

    Final Occupation by Irrep:
             Ag   B1g   B2g   B3g    Au   B1u   B2u   B3u
    DOCC [     3,    0,    0,    0,    0,    2,    1,    1 ]
    SOCC [     0,    0,    1,    1,    0,    0,    0,    0 ]
    NA   [     3,    0,    1,    1,    0,    2,    1,    1 ]
    NB   [     3,    0,    0,    0,    0,    2,    1,    1 ]

  @DF-UKS Final Energy:  -150.37078386359821

   => Energetics <=

    Nuclear Repulsion Energy =             26.0650140978234326
    One-Electron Energy =                -258.1126149487821522
    Two-Electron Energy =                  95.3928274947726749
    DFT Exchange-Correlation Energy =     -13.7160105074121734
    Empirical Dispersion Energy =           0.0000000000000000
    VV10 Nonlocal Energy =                  0.0000000000000000
    Total Energy =                       -150.3707838635982341

  UHF NO Occupations:
  HONO-2 :    1B3u 1.9982455
  HONO-1 :    1B3g 1.0000000
  HONO-0 :    1B2g 1.0000000
  LUNO+0 :    2B2u 0.0017545
  LUNO+1 :    2B3u 0.0017545
  LUNO+2 :    3B1u 0.0007545
  LUNO+3 :    4 Ag 0.0002988

Computation Completed

Properties will be evaluated at   0.000000,   0.000000,   0.000000 [a0]

Properties computed using the B3LYP density matrix

 Multipole Moments:

 ------------------------------------------------------------------------------------
     Multipole            Electronic (a.u.)      Nuclear  (a.u.)        Total (a.u.)
 ------------------------------------------------------------------------------------

 L = 1.  Multiply by 2.5417464519 to convert [e a0] to [Debye]
 Dipole X            :          0.0000000            0.0000000            0.0000000
 Dipole Y            :          0.0000000            0.0000000            0.0000000
 Dipole Z            :          0.0000000            0.0000000            0.0000000
 Magnitude           :                                                    0.0000000

 L = 2.  Multiply by 1.3450342976 to convert [e a0^2] to [Debye ang]
 Quadrupole XX       :         -7.4898803            0.0000000           -7.4898803
 Quadrupole XY       :          0.0000000            0.0000000            0.0000000
 Quadrupole XZ       :          0.0000000            0.0000000            0.0000000
 Quadrupole YY       :         -7.4898803            0.0000000           -7.4898803
 Quadrupole YZ       :          0.0000000            0.0000000            0.0000000
 Quadrupole ZZ       :        -31.7371074           24.1159298           -7.6211776
 Traceless XX        :          8.0824091           -8.0386433            0.0437658
 Traceless YY        :          8.0824091           -8.0386433            0.0437658
 Traceless ZZ        :        -16.1648181           16.0772865           -0.0875316

 ------------------------------------------------------------------------------------
  ==> Computing MBIS Charges <==

  Electron Count from Grid (Expected Number): 16.00000 (16.00000)
  Difference: -0.00000

  MBIS Charges: (a.u.)
   Center  Symbol  Z      Pop.       Charge
      1       O    8    8.000000    0.000000
      2       O    8    8.000000    0.000000

  MBIS Dipoles: [e a0]
   Center  Symbol  Z        X           Y           Z
      1       O    8   -0.000000    0.000000    0.063321
      2       O    8   -0.000000    0.000000   -0.063321

  MBIS Quadrupoles: [e a0^2]
   Center  Symbol  Z      XX        XY        XZ        YY        YZ        ZZ
      1       O    8   -3.7449   -0.0000   -0.0000   -3.7449    0.0000   -3.6551
      2       O    8   -3.7449   -0.0000    0.0000   -3.7449   -0.0000   -3.6551

  MBIS Octupoles: [e a0^3]
   Center  Symbol  Z      XXX       XXY       XXZ       XYY       XYZ       XZZ       YYY       YYZ       YZZ       ZZZ
      1       O    8   -0.0000    0.0000    0.0510   -0.0000   -0.0000   -0.0000    0.0000    0.0510    0.0000   -0.2085
      2       O    8   -0.0000   -0.0000   -0.0510   -0.0000    0.0000   -0.0000    0.0000   -0.0510    0.0000    0.2085

  MBIS Radial Moments:
   Center  Symbol  Z      [a0^2]      [a0^3]      [a0^4]
      1       O    8   11.144992   20.818185   46.654453
      2       O    8   11.144992   20.818185   46.654453

  MBIS Valence Widths: [a0]
   Center  Symbol  Z     Width
      1       O    8    0.383262
      2       O    8    0.383262

*** tstop() called on Mac.lan at Sun Aug 10 17:01:41 2025
Module time:
	user time   =       3.12 seconds =       0.05 minutes
	system time =       2.53 seconds =       0.04 minutes
	total time  =          1 seconds =       0.02 minutes
Total time:
	user time   =      13.56 seconds =       0.23 minutes
	system time =       4.91 seconds =       0.08 minutes
	total time  =          2 seconds =       0.03 minutes

    Psi4 stopped on: Sunday, 10 August 2025 05:01PM
    Psi4 wall time for execution: 0:00:01.81

*** Psi4 exiting successfully. Buy a developer a beer!
