                               Psi4 1.9.1 release

  ==> Input File <==

--------------------------------------------------------------------------
molecule {
0 1
O           0.000000           0.000000           0.000000
C           0.000000           0.000000           1.440987
}

set {
basis              cc-pvtz
reference          uks
maxiter            500
DAMPING_PERCENTAGE 1
E_CONVERGENCE      1.0E-8
D_CONVERGENCE      1.0E-8
DIIS_MAX_VECS      400
MBIS_MAXITER       8000
guess              read
}

E, wfn = energy('b3lyp', restart_file='last_wfn', return_wfn=True)
properties('b3lyp','MBIS_CHARGES', wfn=wfn)
wfn.to_file('last_wfn')
--------------------------------------------------------------------------

    Molecular point group: c2v
  Charge       = 0
  Multiplicity = 1
  Basis Set: CC-PVTZ
    Blend: CC-PVTZ
  Basis Set: (CC-PVTZ AUX)
    Blend: CC-PVTZ-JKFIT
  @DF-UKS Final Energy:  -113.24211929106455
    Total Energy =                       -113.2421192910645544
 Dipole X            :          0.0000000            0.0000000            0.0000000
 Dipole Y            :          0.0000000            0.0000000            0.0000000
 Dipole Z            :          0.3880045           -0.0029679            0.3850366
 Magnitude           :                                                    0.3850366
    Molecular point group: c2v

    Geometry (in Angstrom), charge = 0, multiplicity = 1:

       Center              X                  Y                   Z               Mass
    ------------   -----------------  -----------------  -----------------  -----------------
         O            0.000000000000     0.000000000000    -0.617678040279    15.994914619570
         C            0.000000000000     0.000000000000     0.823308959721    12.000000000000

  Charge       = 0
  Multiplicity = 1
  Basis Set: CC-PVTZ
    Blend: CC-PVTZ
  Basis Set: (CC-PVTZ AUX)
    Blend: CC-PVTZ-JKFIT

    Orbital Energies [Eh]
    ---------------------

    Alpha Occupied:

       1A1   -19.238224     2A1   -10.383269     3A1    -1.021482
       4A1    -0.587253     1B1    -0.396234     1B2    -0.396234
       5A1    -0.395636

    Alpha Virtual:

       2B1    -0.126652     2B2    -0.126652     6A1     0.104305
       3B2     0.287275     3B1     0.287275     7A1     0.296937
       8A1     0.315201     9A1     0.542430     4B1     0.614767
       4B2     0.614767     1A2     0.632295    10A1     0.632295
       5B2     0.760236     5B1     0.760236    11A1     1.027161
      12A1     1.192334    13A1     1.464118     2A2     1.464118
       6B2     1.684668     6B1     1.684668    14A1     1.963373
       7B2     1.972747     7B1     1.972747    15A1     2.178118
       8B1     2.616512     8B2     2.616512     3A2     2.672019
      16A1     2.672019     9B2     2.838174     9B1     2.838174
       4A2     2.884679    17A1     2.884681    18A1     2.938118
      10B2     3.105370    10B1     3.105370    19A1     3.177692
      20A1     3.736672    11B1     3.750391    11B2     3.750391
      12B2     5.081120    12B1     5.081120    21A1     5.117935
      22A1     5.190685     5A2     5.190686    13B1     5.552326
      13B2     5.552326    23A1     6.060955     6A2     6.177613
      24A1     6.177645    14B1     6.575583    14B2     6.575583
      25A1     7.207139    26A1     8.689197

    Beta Occupied:

       1A1   -19.238224     2A1   -10.383269     3A1    -1.021482
       4A1    -0.587253     1B1    -0.396234     1B2    -0.396234
       5A1    -0.395636

    Beta Virtual:

       2B1    -0.126652     2B2    -0.126652     6A1     0.104305
       3B2     0.287275     3B1     0.287275     7A1     0.296937
       8A1     0.315201     9A1     0.542430     4B2     0.614767
       4B1     0.614767     1A2     0.632295    10A1     0.632295
       5B2     0.760236     5B1     0.760236    11A1     1.027161
      12A1     1.192334    13A1     1.464118     2A2     1.464118
       6B2     1.684668     6B1     1.684668    14A1     1.963373
       7B2     1.972747     7B1     1.972747    15A1     2.178118
       8B1     2.616512     8B2     2.616512     3A2     2.672019
      16A1     2.672019     9B2     2.838174     9B1     2.838174
       4A2     2.884679    17A1     2.884681    18A1     2.938118
      10B2     3.105370    10B1     3.105370    19A1     3.177692
      20A1     3.736672    11B1     3.750391    11B2     3.750391
      12B2     5.081120    12B1     5.081120    21A1     5.117935
      22A1     5.190685     5A2     5.190686    13B1     5.552326
      13B2     5.552326    23A1     6.060955     6A2     6.177613
      24A1     6.177645    14B1     6.575583    14B2     6.575583
      25A1     7.207139    26A1     8.689197

    Final Occupation by Irrep:
             A1    A2    B1    B2
    DOCC [     5,    0,    1,    1 ]
    SOCC [     0,    0,    0,    0 ]
    NA   [     5,    0,    1,    1 ]
    NB   [     5,    0,    1,    1 ]

  @DF-UKS Final Energy:  -113.24211928988248

   => Energetics <=

    Nuclear Repulsion Energy =             17.6271584075081869
    One-Electron Energy =                -188.9484986824329553
    Two-Electron Energy =                  69.1273051903564948
    DFT Exchange-Correlation Energy =     -11.0480842053141917
    Empirical Dispersion Energy =           0.0000000000000000
    VV10 Nonlocal Energy =                  0.0000000000000000
    Total Energy =                       -113.2421192898824813

  UHF NO Occupations:
  HONO-2 :    1 B2 2.0000000
  HONO-1 :    4 A1 2.0000000
  HONO-0 :    5 A1 2.0000000
  LUNO+0 :    6 A1 0.0000000
  LUNO+1 :    7 A1 0.0000000
  LUNO+2 :    8 A1 0.0000000
  LUNO+3 :    9 A1 0.0000000

Computation Completed

Properties will be evaluated at   0.000000,   0.000000,   0.000000 [a0]

Properties computed using the B3LYP density matrix

 Multipole Moments:

 ------------------------------------------------------------------------------------
     Multipole            Electronic (a.u.)      Nuclear  (a.u.)        Total (a.u.)
 ------------------------------------------------------------------------------------

 L = 1.  Multiply by 2.5417464519 to convert [e a0] to [Debye]
 Dipole X            :          0.0000000            0.0000000            0.0000000
 Dipole Y            :          0.0000000            0.0000000            0.0000000
 Dipole Z            :          0.3880045           -0.0029679            0.3850366
 Magnitude           :                                                    0.3850366

 L = 2.  Multiply by 1.3450342976 to convert [e a0^2] to [Debye ang]
 Quadrupole XX       :         -8.0101251            0.0000000           -8.0101251
 Quadrupole XY       :          0.0000000            0.0000000            0.0000000
 Quadrupole XZ       :          0.0000000            0.0000000            0.0000000
 Quadrupole YY       :         -8.0101251            0.0000000           -8.0101251
 Quadrupole YZ       :          0.0000000            0.0000000            0.0000000
 Quadrupole ZZ       :        -34.2438998           25.4232503           -8.8206495
 Traceless XX        :          8.7445916           -8.4744168            0.2701748
 Traceless YY        :          8.7445916           -8.4744168            0.2701748
 Traceless ZZ        :        -17.4891831           16.9488335           -0.5403496

 ------------------------------------------------------------------------------------
  ==> Computing MBIS Charges <==

  Electron Count from Grid (Expected Number): 14.00000 (14.00000)
  Difference: -0.00000

  MBIS Charges: (a.u.)
   Center  Symbol  Z      Pop.       Charge
      1       O    8    8.265192   -0.265192
      2       C    6    5.734808    0.265192

  MBIS Dipoles: [e a0]
   Center  Symbol  Z        X           Y           Z
      1       O    8    0.000000   -0.000000   -0.118981
      2       C    6    0.000000    0.000000   -0.218120

  MBIS Quadrupoles: [e a0^2]
   Center  Symbol  Z      XX        XY        XZ        YY        YZ        ZZ
      1       O    8   -4.0459    0.0000   -0.0000   -4.0459    0.0000   -4.0996
      2       C    6   -3.9642   -0.0000    0.0000   -3.9642    0.0000   -4.6007

  MBIS Octupoles: [e a0^3]
   Center  Symbol  Z      XXX       XXY       XXZ       XYY       XYZ       XZZ       YYY       YYZ       YZZ       ZZZ
      1       O    8   -0.0000   -0.0000   -0.1031   -0.0000   -0.0000    0.0000   -0.0000   -0.1031   -0.0000   -0.3699
      2       C    6   -0.0000    0.0000   -0.0305    0.0000    0.0000    0.0000    0.0000   -0.0305    0.0000   -0.2695

  MBIS Radial Moments:
   Center  Symbol  Z      [a0^2]      [a0^3]      [a0^4]
      1       O    8   12.191448   23.267263   53.095529
      2       C    6   12.529112   30.174006   86.186366

  MBIS Valence Widths: [a0]
   Center  Symbol  Z     Width
      1       O    8    0.393528
      2       C    6    0.512638

*** tstop() called on Mac.lan at Sun Aug 10 17:18:33 2025
Module time:
	user time   =       3.83 seconds =       0.06 minutes
	system time =       2.01 seconds =       0.03 minutes
	total time  =          1 seconds =       0.02 minutes
Total time:
	user time   =      16.83 seconds =       0.28 minutes
	system time =       4.44 seconds =       0.07 minutes
	total time  =          2 seconds =       0.03 minutes

    Psi4 stopped on: Sunday, 10 August 2025 05:18PM
    Psi4 wall time for execution: 0:00:02.06

*** Psi4 exiting successfully. Buy a developer a beer!
