                               Psi4 1.9.1 release

  ==> Input File <==

--------------------------------------------------------------------------
molecule {
0 2
O           0.000000           0.000000           0.000000
N           0.000000           0.000000           1.319014
}

set {
basis              cc-pvtz
reference          uks
maxiter            500
DAMPING_PERCENTAGE 1
E_CONVERGENCE      1.0E-8
D_CONVERGENCE      1.0E-8
DIIS_MAX_VECS      400
MBIS_MAXITER       8000
guess              read
}

E, wfn = energy('b3lyp', restart_file='last_wfn', return_wfn=True)
properties('b3lyp','MBIS_CHARGES', wfn=wfn)
wfn.to_file('last_wfn')
--------------------------------------------------------------------------

    Molecular point group: c2v
  Charge       = 0
  Multiplicity = 2
  Basis Set: CC-PVTZ
    Blend: CC-PVTZ
  Basis Set: (CC-PVTZ AUX)
    Blend: CC-PVTZ-JKFIT
  @DF-UKS Final Energy:  -129.90086175403835
    Total Energy =                       -129.9008617540383455
 Dipole X            :          0.0000000            0.0000000            0.0000000
 Dipole Y            :          0.0000000            0.0000000            0.0000000
 Dipole Z            :          0.1308779           -0.0050012            0.1258766
 Magnitude           :                                                    0.1258766
    Molecular point group: c2v

    Geometry (in Angstrom), charge = 0, multiplicity = 2:

       Center              X                  Y                   Z               Mass
    ------------   -----------------  -----------------  -----------------  -----------------
         O            0.000000000000     0.000000000000    -0.615716303062    15.994914619570
         N            0.000000000000     0.000000000000     0.703297696938    14.003074004430

  Charge       = 0
  Multiplicity = 2
  Basis Set: CC-PVTZ
    Blend: CC-PVTZ
  Basis Set: (CC-PVTZ AUX)
    Blend: CC-PVTZ-JKFIT

    Orbital Energies [Eh]
    ---------------------

    Alpha Occupied:

       1A1   -19.273419     2A1   -14.496729     3A1    -1.138387
       4A1    -0.725609     1B1    -0.489549     5A1    -0.476553
       1B2    -0.457585     2B1    -0.276127

    Alpha Virtual:

       2B2    -0.165752     6A1     0.141713     7A1     0.402764
       3B1     0.416916     3B2     0.425256     8A1     0.466361
       9A1     0.558517     4B1     0.595115     4B2     0.601300
       1A2     0.934945    10A1     0.936796     5B2     1.041826
       5B1     1.042377    11A1     1.165238     2A2     1.481424
      12A1     1.482506    13A1     1.534313     6B1     1.902509
       6B2     1.903300    14A1     2.088781     7B1     2.765719
       7B2     2.783937    15A1     3.028282     8B1     3.446194
       8B2     3.454356     3A2     3.743334    16A1     3.745187
       9B1     3.783952     9B2     3.784520    17A1     3.889905
      10B1     3.992251    10B2     3.993191    18A1     4.252426
       4A2     4.321418    19A1     4.326925    20A1     4.540873
      11B1     4.606472    11B2     4.614817    12B1     5.046767
      12B2     5.046889     5A2     5.283569    21A1     5.284571
      22A1     5.595796    13B1     5.953352    13B2     5.953766
       6A2     6.135548    23A1     6.137772    24A1     6.472767
      14B1     6.645780    14B2     6.647075    25A1     7.313537
      26A1     9.987220

    Beta Occupied:

       1A1   -19.264842     2A1   -14.479163     3A1    -1.116747
       4A1    -0.683902     5A1    -0.457786     1B2    -0.450425
       1B1    -0.415394

    Beta Virtual:

       2B2    -0.148736     2B1    -0.105959     6A1     0.158664
       7A1     0.411361     3B2     0.433720     3B1     0.456853
       8A1     0.480742     9A1     0.564251     4B2     0.602389
       4B1     0.619376     1A2     0.965913    10A1     0.965948
       5B2     1.044866     5B1     1.070589    11A1     1.173870
      12A1     1.499721     2A2     1.499786    13A1     1.548441
       6B2     1.905148     6B1     1.928411    14A1     2.099237
       7B2     2.800975     7B1     2.840942    15A1     3.041220
       8B2     3.457410     8B1     3.487332    16A1     3.771191
       3A2     3.772337     9B2     3.834607     9B1     3.834703
      17A1     3.911639    10B2     3.998777    10B1     4.029993
      18A1     4.264558    19A1     4.392947     4A2     4.394491
      20A1     4.567717    11B2     4.623723    11B1     4.660824
      12B2     5.066354    12B1     5.066363    21A1     5.298692
       5A2     5.298826    22A1     5.609568    13B2     5.954562
      13B1     5.982802    23A1     6.166709     6A2     6.166873
      24A1     6.482543    14B2     6.646922    14B1     6.674694
      25A1     7.329602    26A1    10.004305

    Final Occupation by Irrep:
             A1    A2    B1    B2
    DOCC [     5,    0,    1,    1 ]
    SOCC [     0,    0,    1,    0 ]
    NA   [     5,    0,    2,    1 ]
    NB   [     5,    0,    1,    1 ]

  @DF-UKS Final Energy:  -129.90086175217002

   => Energetics <=

    Nuclear Repulsion Energy =             22.4667242330407433
    One-Electron Energy =                -221.6795985561519160
    Two-Electron Energy =                  81.6214970717893351
    DFT Exchange-Correlation Energy =     -12.3094845008481624
    Empirical Dispersion Energy =           0.0000000000000000
    VV10 Nonlocal Energy =                  0.0000000000000000
    Total Energy =                       -129.9008617521700160

  UHF NO Occupations:
  HONO-2 :    1 B1 1.9989450
  HONO-1 :    1 B2 1.9986475
  HONO-0 :    2 B1 1.0000000
  LUNO+0 :    2 B2 0.0013525
  LUNO+1 :    3 B1 0.0010550
  LUNO+2 :    6 A1 0.0005582
  LUNO+3 :    7 A1 0.0000920

Computation Completed

Properties will be evaluated at   0.000000,   0.000000,   0.000000 [a0]

Properties computed using the B3LYP density matrix

 Multipole Moments:

 ------------------------------------------------------------------------------------
     Multipole            Electronic (a.u.)      Nuclear  (a.u.)        Total (a.u.)
 ------------------------------------------------------------------------------------

 L = 1.  Multiply by 2.5417464519 to convert [e a0] to [Debye]
 Dipole X            :          0.0000000            0.0000000            0.0000000
 Dipole Y            :          0.0000000            0.0000000            0.0000000
 Dipole Z            :          0.1308779           -0.0050012            0.1258767
 Magnitude           :                                                    0.1258767

 L = 2.  Multiply by 1.3450342976 to convert [e a0^2] to [Debye ang]
 Quadrupole XX       :         -8.1159847            0.0000000           -8.1159847
 Quadrupole XY       :          0.0000000            0.0000000            0.0000000
 Quadrupole XZ       :          0.0000000            0.0000000            0.0000000
 Quadrupole YY       :         -7.3484439            0.0000000           -7.3484439
 Quadrupole YZ       :          0.0000000            0.0000000            0.0000000
 Quadrupole ZZ       :        -31.4020661           23.1949448           -8.2071212
 Traceless XX        :          7.5061802           -7.7316483           -0.2254681
 Traceless YY        :          8.2737210           -7.7316483            0.5420727
 Traceless ZZ        :        -15.7799012           15.4632966           -0.3166046

 ------------------------------------------------------------------------------------
  ==> Computing MBIS Charges <==

  Electron Count from Grid (Expected Number): 15.00000 (15.00000)
  Difference:  0.00000

  MBIS Charges: (a.u.)
   Center  Symbol  Z      Pop.       Charge
      1       O    8    8.099420   -0.099420
      2       N    7    6.900580    0.099420

  MBIS Dipoles: [e a0]
   Center  Symbol  Z        X           Y           Z
      1       O    8   -0.000000   -0.000000   -0.003568
      2       N    7   -0.000000   -0.000000   -0.118368

  MBIS Quadrupoles: [e a0^2]
   Center  Symbol  Z      XX        XY        XZ        YY        YZ        ZZ
      1       O    8   -3.9423    0.0000   -0.0000   -3.6837   -0.0000   -3.8445
      2       N    7   -4.1737    0.0000    0.0000   -3.6648    0.0000   -4.0973

  MBIS Octupoles: [e a0^3]
   Center  Symbol  Z      XXX       XXY       XXZ       XYY       XYZ       XZZ       YYY       YYZ       YZZ       ZZZ
      1       O    8   -0.0000   -0.0000    0.0375   -0.0000    0.0000   -0.0000   -0.0000   -0.0226   -0.0000   -0.1991
      2       N    7   -0.0000   -0.0000   -0.1290    0.0000    0.0000    0.0000   -0.0000    0.0531   -0.0000    0.1533

  MBIS Radial Moments:
   Center  Symbol  Z      [a0^2]      [a0^3]      [a0^4]
      1       O    8   11.470465   21.521675   48.381603
      2       N    7   11.935772   25.050265   62.669484

  MBIS Valence Widths: [a0]
   Center  Symbol  Z     Width
      1       O    8    0.386132
      2       N    7    0.438357

*** tstop() called on Mac.lan at Sun Aug 10 17:20:53 2025
Module time:
	user time   =       4.15 seconds =       0.07 minutes
	system time =       1.38 seconds =       0.02 minutes
	total time  =          1 seconds =       0.02 minutes
Total time:
	user time   =      19.78 seconds =       0.33 minutes
	system time =       3.56 seconds =       0.06 minutes
	total time  =          2 seconds =       0.03 minutes

    Psi4 stopped on: Sunday, 10 August 2025 05:20PM
    Psi4 wall time for execution: 0:00:02.25

*** Psi4 exiting successfully. Buy a developer a beer!
