                               Psi4 1.9.1 release

  ==> Input File <==

--------------------------------------------------------------------------
molecule {
0 1
O           0.000000           0.000000           0.000000
C           0.000000           0.000000           1.399619
}

set {
basis              cc-pvtz
reference          uks
maxiter            500
DAMPING_PERCENTAGE 1
E_CONVERGENCE      1.0E-8
D_CONVERGENCE      1.0E-8
DIIS_MAX_VECS      400
MBIS_MAXITER       8000
guess              read
}

E, wfn = energy('b3lyp', restart_file='last_wfn', return_wfn=True)
properties('b3lyp','MBIS_CHARGES', wfn=wfn)
wfn.to_file('last_wfn')
--------------------------------------------------------------------------

    Molecular point group: c2v
  Charge       = 0
  Multiplicity = 1
  Basis Set: CC-PVTZ
    Blend: CC-PVTZ
  Basis Set: (CC-PVTZ AUX)
    Blend: CC-PVTZ-JKFIT
  @DF-UKS Final Energy:  -113.26309204518979
    Total Energy =                       -113.2630920451897936
 Dipole X            :          0.0000000            0.0000000            0.0000000
 Dipole Y            :          0.0000000            0.0000000            0.0000000
 Dipole Z            :          0.3327165           -0.0028827            0.3298338
 Magnitude           :                                                    0.3298338
    Molecular point group: c2v

    Geometry (in Angstrom), charge = 0, multiplicity = 1:

       Center              X                  Y                   Z               Mass
    ------------   -----------------  -----------------  -----------------  -----------------
         O            0.000000000000     0.000000000000    -0.599945676857    15.994914619570
         C            0.000000000000     0.000000000000     0.799673323143    12.000000000000

  Charge       = 0
  Multiplicity = 1
  Basis Set: CC-PVTZ
    Blend: CC-PVTZ
  Basis Set: (CC-PVTZ AUX)
    Blend: CC-PVTZ-JKFIT

    Orbital Energies [Eh]
    ---------------------

    Alpha Occupied:

       1A1   -19.239724     2A1   -10.374423     3A1    -1.037548
       4A1    -0.585502     1B1    -0.405360     1B2    -0.405360
       5A1    -0.396201

    Alpha Virtual:

       2B1    -0.117180     2B2    -0.117180     6A1     0.120604
       3B2     0.287524     3B1     0.287524     7A1     0.302676
       8A1     0.326609     9A1     0.540888     4B2     0.616125
       4B1     0.616125     1A2     0.632540    10A1     0.632540
       5B1     0.768671     5B2     0.768671    11A1     1.044333
      12A1     1.187180    13A1     1.465077     2A2     1.465077
       6B1     1.704178     6B2     1.704178     7B2     1.981073
       7B1     1.981073    14A1     1.999541    15A1     2.158560
       8B1     2.618843     8B2     2.618843     3A2     2.684359
      16A1     2.684359     9B1     2.855672     9B2     2.855672
       4A2     2.889923    17A1     2.889925    18A1     2.986116
      10B1     3.115488    10B2     3.115488    19A1     3.178982
      20A1     3.779386    11B1     3.781198    11B2     3.781198
      12B2     5.077222    12B1     5.077222    21A1     5.212504
       5A2     5.212505    22A1     5.240973    13B2     5.615700
      13B1     5.615700    23A1     6.144441     6A2     6.181040
      24A1     6.181058    14B1     6.603752    14B2     6.603752
      25A1     7.189262    26A1     8.959777

    Beta Occupied:

       1A1   -19.239724     2A1   -10.374423     3A1    -1.037548
       4A1    -0.585502     1B1    -0.405360     1B2    -0.405360
       5A1    -0.396201

    Beta Virtual:

       2B1    -0.117180     2B2    -0.117180     6A1     0.120604
       3B2     0.287524     3B1     0.287524     7A1     0.302676
       8A1     0.326609     9A1     0.540888     4B2     0.616125
       4B1     0.616125     1A2     0.632540    10A1     0.632540
       5B1     0.768671     5B2     0.768671    11A1     1.044333
      12A1     1.187180    13A1     1.465077     2A2     1.465077
       6B1     1.704178     6B2     1.704178     7B2     1.981073
       7B1     1.981073    14A1     1.999541    15A1     2.158560
       8B1     2.618843     8B2     2.618843     3A2     2.684359
      16A1     2.684359     9B1     2.855672     9B2     2.855672
       4A2     2.889923    17A1     2.889925    18A1     2.986116
      10B1     3.115488    10B2     3.115488    19A1     3.178982
      20A1     3.779386    11B1     3.781198    11B2     3.781198
      12B2     5.077222    12B1     5.077222    21A1     5.212504
       5A2     5.212505    22A1     5.240973    13B2     5.615700
      13B1     5.615700    23A1     6.144441     6A2     6.181040
      24A1     6.181058    14B1     6.603752    14B2     6.603752
      25A1     7.189262    26A1     8.959777

    Final Occupation by Irrep:
             A1    A2    B1    B2
    DOCC [     5,    0,    1,    1 ]
    SOCC [     0,    0,    0,    0 ]
    NA   [     5,    0,    1,    1 ]
    NB   [     5,    0,    1,    1 ]

  @DF-UKS Final Energy:  -113.26309204429100

   => Energetics <=

    Nuclear Repulsion Energy =             18.1481575429884856
    One-Electron Energy =                -189.9692303158053051
    Two-Electron Energy =                  69.6233122373590589
    DFT Exchange-Correlation Energy =     -11.0653315088332320
    Empirical Dispersion Energy =           0.0000000000000000
    VV10 Nonlocal Energy =                  0.0000000000000000
    Total Energy =                       -113.2630920442909996

  UHF NO Occupations:
  HONO-2 :    3 A1 2.0000000
  HONO-1 :    4 A1 2.0000000
  HONO-0 :    5 A1 2.0000000
  LUNO+0 :    6 A1 0.0000000
  LUNO+1 :    7 A1 0.0000000
  LUNO+2 :    8 A1 0.0000000
  LUNO+3 :    9 A1 0.0000000

Computation Completed

Properties will be evaluated at   0.000000,   0.000000,   0.000000 [a0]

Properties computed using the B3LYP density matrix

 Multipole Moments:

 ------------------------------------------------------------------------------------
     Multipole            Electronic (a.u.)      Nuclear  (a.u.)        Total (a.u.)
 ------------------------------------------------------------------------------------

 L = 1.  Multiply by 2.5417464519 to convert [e a0] to [Debye]
 Dipole X            :          0.0000000            0.0000000            0.0000000
 Dipole Y            :          0.0000000            0.0000000            0.0000000
 Dipole Z            :          0.3327165           -0.0028827            0.3298338
 Magnitude           :                                                    0.3298338

 L = 2.  Multiply by 1.3450342976 to convert [e a0^2] to [Debye ang]
 Quadrupole XX       :         -7.9639850            0.0000000           -7.9639850
 Quadrupole XY       :          0.0000000            0.0000000            0.0000000
 Quadrupole XZ       :          0.0000000            0.0000000            0.0000000
 Quadrupole YY       :         -7.9639850            0.0000000           -7.9639850
 Quadrupole YZ       :          0.0000000            0.0000000            0.0000000
 Quadrupole ZZ       :        -32.8665682           23.9844965           -8.8820717
 Traceless XX        :          8.3008610           -7.9948322            0.3060289
 Traceless YY        :          8.3008610           -7.9948322            0.3060289
 Traceless ZZ        :        -16.6017221           15.9896643           -0.6120578

 ------------------------------------------------------------------------------------
  ==> Computing MBIS Charges <==

  Electron Count from Grid (Expected Number): 14.00000 (14.00000)
  Difference: -0.00000

  MBIS Charges: (a.u.)
   Center  Symbol  Z      Pop.       Charge
      1       O    8    8.253061   -0.253061
      2       C    6    5.746939    0.253061

  MBIS Dipoles: [e a0]
   Center  Symbol  Z        X           Y           Z
      1       O    8   -0.000000   -0.000000   -0.109600
      2       C    6    0.000000    0.000000   -0.229887

  MBIS Quadrupoles: [e a0^2]
   Center  Symbol  Z      XX        XY        XZ        YY        YZ        ZZ
      1       O    8   -4.0006   -0.0000   -0.0000   -4.0006    0.0000   -4.0714
      2       C    6   -3.9634   -0.0000    0.0000   -3.9634    0.0000   -4.6170

  MBIS Octupoles: [e a0^3]
   Center  Symbol  Z      XXX       XXY       XXZ       XYY       XYZ       XZZ       YYY       YYZ       YZZ       ZZZ
      1       O    8    0.0000   -0.0000   -0.0860    0.0000    0.0000    0.0000   -0.0000   -0.0860    0.0000   -0.3268
      2       C    6   -0.0000    0.0000   -0.0569   -0.0000    0.0000    0.0000    0.0000   -0.0569    0.0000   -0.3336

  MBIS Radial Moments:
   Center  Symbol  Z      [a0^2]      [a0^3]      [a0^4]
      1       O    8   12.072577   22.933969   52.112749
      2       C    6   12.543808   30.178883   86.094738

  MBIS Valence Widths: [a0]
   Center  Symbol  Z     Width
      1       O    8    0.391937
      2       C    6    0.512079

*** tstop() called on Mac.lan at Sun Aug 10 17:18:28 2025
Module time:
	user time   =       3.39 seconds =       0.06 minutes
	system time =       2.45 seconds =       0.04 minutes
	total time  =          1 seconds =       0.02 minutes
Total time:
	user time   =      36.95 seconds =       0.62 minutes
	system time =       5.47 seconds =       0.09 minutes
	total time  =          5 seconds =       0.08 minutes

    Psi4 stopped on: Sunday, 10 August 2025 05:18PM
    Psi4 wall time for execution: 0:00:04.33

*** Psi4 exiting successfully. Buy a developer a beer!
