                               Psi4 1.9.1 release

  ==> Input File <==

--------------------------------------------------------------------------
molecule {
0 3
O           0.000000           0.000000           0.000000
O           0.000000           0.000000           1.542967
}

set {
basis              cc-pvtz
reference          uks
maxiter            500
DAMPING_PERCENTAGE 1
E_CONVERGENCE      1.0E-8
D_CONVERGENCE      1.0E-8
DIIS_MAX_VECS      400
MBIS_MAXITER       8000
guess              read
}

E, wfn = energy('b3lyp', restart_file='last_wfn', return_wfn=True)
properties('b3lyp','MBIS_CHARGES', wfn=wfn)
wfn.to_file('last_wfn')
--------------------------------------------------------------------------

    Molecular point group: d2h
  Charge       = 0
  Multiplicity = 3
  Basis Set: CC-PVTZ
    Blend: CC-PVTZ
  Basis Set: (CC-PVTZ AUX)
    Blend: CC-PVTZ-JKFIT
  @DF-UKS Final Energy:  -150.29871320441927
    Total Energy =                       -150.2987132044192720
 Dipole X            :          0.0000000            0.0000000            0.0000000
 Dipole Y            :          0.0000000            0.0000000            0.0000000
 Dipole Z            :          0.0000000            0.0000000            0.0000000
 Magnitude           :                                                    0.0000000
    Molecular point group: d2h

    Geometry (in Angstrom), charge = 0, multiplicity = 3:

       Center              X                  Y                   Z               Mass
    ------------   -----------------  -----------------  -----------------  -----------------
         O            0.000000000000     0.000000000000    -0.771483500000    15.994914619570
         O            0.000000000000     0.000000000000     0.771483500000    15.994914619570

  Charge       = 0
  Multiplicity = 3
  Basis Set: CC-PVTZ
    Blend: CC-PVTZ
  Basis Set: (CC-PVTZ AUX)
    Blend: CC-PVTZ-JKFIT

    Orbital Energies [Eh]
    ---------------------

    Alpha Occupied:

       1Ag   -19.316949     1B1u  -19.316907     2Ag    -1.129348
       2B1u   -0.929317     3Ag    -0.506039     1B2u   -0.494901
       1B3u   -0.494901     1B3g   -0.386538     1B2g   -0.386538

    Alpha Virtual:

       3B1u   -0.105828     4B1u    0.475770     2B3u    0.500301
       2B2u    0.500301     4Ag     0.580917     2B3g    0.603544
       2B2g    0.603544     5Ag     0.690638     5B1u    1.120697
       3B2u    1.184381     3B3u    1.184381     1B1g    1.291046
       6Ag     1.291047     1Au     1.490633     6B1u    1.490634
       7Ag     1.611866     3B2g    1.901546     3B3g    1.901546
       7B1u    2.254170     8Ag     3.342751     4B3u    3.389846
       4B2u    3.389846     4B2g    3.541323     4B3g    3.541323
       8B1u    4.095137     5B3u    4.667498     5B2u    4.667498
       9Ag     4.735981    10Ag     4.844977     2B1g    4.844978
       6B3u    4.991265     6B2u    4.991265     5B2g    5.028288
       5B3g    5.028288     9B1u    5.173302     2Au     5.173303
       6B2g    5.533992     6B3g    5.533992    10B1u    5.818564
       3B1g    5.981459    11Ag     5.981494     7B2u    6.053742
       7B3u    6.053742     3Au     6.113744    11B1u    6.113780
      12Ag     6.394071     7B2g    6.611447     7B3g    6.611447
      12B1u    7.214530    13Ag     7.270901    13B1u    8.088006

    Beta Occupied:

       1Ag   -19.287152     1B1u  -19.287047     2Ag    -1.060623
       2B1u   -0.839793     3Ag    -0.476236     1B2u   -0.385229
       1B3u   -0.385229

    Beta Virtual:

       1B3g   -0.199223     1B2g   -0.199223     3B1u   -0.068681
       4B1u    0.488563     2B3u    0.542311     2B2u    0.542311
       4Ag     0.595341     2B3g    0.642038     2B2g    0.642038
       5Ag     0.710330     5B1u    1.151953     3B2u    1.207437
       3B3u    1.207437     6Ag     1.338557     1B1g    1.338558
       6B1u    1.548137     1Au     1.548138     7Ag     1.640879
       3B2g    1.935804     3B3g    1.935804     7B1u    2.276471
       8Ag     3.360535     4B3u    3.462733     4B2u    3.462733
       4B2g    3.617691     4B3g    3.617691     8B1u    4.126763
       5B3u    4.703811     5B2u    4.703811     9Ag     4.771470
      10Ag     4.892758     2B1g    4.892759     6B3u    5.064152
       6B2u    5.064152     5B2g    5.101807     5B3g    5.101807
       9B1u    5.224128     2Au     5.224128     6B3g    5.576748
       6B2g    5.576748    10B1u    5.850415     3B1g    6.089869
      11Ag     6.089902     7B2u    6.115357     7B3u    6.115357
       3Au     6.220456    11B1u    6.220490    12Ag     6.419175
       7B2g    6.664421     7B3g    6.664421    12B1u    7.251147
      13Ag     7.334179    13B1u    8.132485

    Final Occupation by Irrep:
             Ag   B1g   B2g   B3g    Au   B1u   B2u   B3u
    DOCC [     3,    0,    0,    0,    0,    2,    1,    1 ]
    SOCC [     0,    0,    1,    1,    0,    0,    0,    0 ]
    NA   [     3,    0,    1,    1,    0,    2,    1,    1 ]
    NB   [     3,    0,    0,    0,    0,    2,    1,    1 ]

  @DF-UKS Final Energy:  -150.29871320427429

   => Energetics <=

    Nuclear Repulsion Energy =             21.9494917797205034
    One-Electron Energy =                -250.0281564790298034
    Two-Electron Energy =                  91.3923179238658463
    DFT Exchange-Correlation Energy =     -13.6123664288308621
    Empirical Dispersion Energy =           0.0000000000000000
    VV10 Nonlocal Energy =                  0.0000000000000000
    Total Energy =                       -150.2987132042742928

  UHF NO Occupations:
  HONO-2 :    1B2u 1.9977725
  HONO-1 :    1B3g 1.0000000
  HONO-0 :    1B2g 1.0000000
  LUNO+0 :    2B2u 0.0022275
  LUNO+1 :    2B3u 0.0022275
  LUNO+2 :    3B1u 0.0005890
  LUNO+3 :    4 Ag 0.0003228

Computation Completed

Properties will be evaluated at   0.000000,   0.000000,   0.000000 [a0]

Properties computed using the B3LYP density matrix

 Multipole Moments:

 ------------------------------------------------------------------------------------
     Multipole            Electronic (a.u.)      Nuclear  (a.u.)        Total (a.u.)
 ------------------------------------------------------------------------------------

 L = 1.  Multiply by 2.5417464519 to convert [e a0] to [Debye]
 Dipole X            :          0.0000000            0.0000000            0.0000000
 Dipole Y            :          0.0000000            0.0000000            0.0000000
 Dipole Z            :          0.0000000            0.0000000            0.0000000
 Magnitude           :                                                    0.0000000

 L = 2.  Multiply by 1.3450342976 to convert [e a0^2] to [Debye ang]
 Quadrupole XX       :         -7.7149415            0.0000000           -7.7149415
 Quadrupole XY       :          0.0000000            0.0000000            0.0000000
 Quadrupole XZ       :          0.0000000            0.0000000            0.0000000
 Quadrupole YY       :         -7.7149415            0.0000000           -7.7149415
 Quadrupole YZ       :          0.0000000            0.0000000            0.0000000
 Quadrupole ZZ       :        -41.2380630           34.0072098           -7.2308531
 Traceless XX        :         11.1743738          -11.3357366           -0.1613628
 Traceless YY        :         11.1743738          -11.3357366           -0.1613628
 Traceless ZZ        :        -22.3487477           22.6714732            0.3227256

 ------------------------------------------------------------------------------------
  ==> Computing MBIS Charges <==

  Electron Count from Grid (Expected Number): 16.00000 (16.00000)
  Difference: -0.00000

  MBIS Charges: (a.u.)
   Center  Symbol  Z      Pop.       Charge
      1       O    8    7.999999    0.000001
      2       O    8    7.999999    0.000001

  MBIS Dipoles: [e a0]
   Center  Symbol  Z        X           Y           Z
      1       O    8   -0.000000    0.000000   -0.015575
      2       O    8   -0.000000   -0.000000    0.015575

  MBIS Quadrupoles: [e a0^2]
   Center  Symbol  Z      XX        XY        XZ        YY        YZ        ZZ
      1       O    8   -3.8575   -0.0000   -0.0000   -3.8575    0.0000   -3.6608
      2       O    8   -3.8575   -0.0000   -0.0000   -3.8575   -0.0000   -3.6608

  MBIS Octupoles: [e a0^3]
   Center  Symbol  Z      XXX       XXY       XXZ       XYY       XYZ       XZZ       YYY       YYZ       YZZ       ZZZ
      1       O    8   -0.0000   -0.0000   -0.0600    0.0000   -0.0000    0.0000    0.0000   -0.0600    0.0000   -0.3716
      2       O    8   -0.0000   -0.0000    0.0600   -0.0000    0.0000   -0.0000    0.0000    0.0600    0.0000    0.3716

  MBIS Radial Moments:
   Center  Symbol  Z      [a0^2]      [a0^3]      [a0^4]
      1       O    8   11.375783   21.514595   48.787117
      2       O    8   11.375783   21.514595   48.787117

  MBIS Valence Widths: [a0]
   Center  Symbol  Z     Width
      1       O    8    0.387300
      2       O    8    0.387300

*** tstop() called on Mac.lan at Sun Aug 10 17:02:08 2025
Module time:
	user time   =       4.16 seconds =       0.07 minutes
	system time =       1.98 seconds =       0.03 minutes
	total time  =          0 seconds =       0.00 minutes
Total time:
	user time   =      15.99 seconds =       0.27 minutes
	system time =       4.55 seconds =       0.08 minutes
	total time  =          2 seconds =       0.03 minutes

    Psi4 stopped on: Sunday, 10 August 2025 05:02PM
    Psi4 wall time for execution: 0:00:02.01

*** Psi4 exiting successfully. Buy a developer a beer!
