                               Psi4 1.9.1 release

  ==> Input File <==

--------------------------------------------------------------------------
molecule {
0 1
N           0.000000           0.000000           0.000000
N           0.000000           0.000000           0.895333
}

set {
basis              cc-pvtz
reference          uks
maxiter            500
DAMPING_PERCENTAGE 1
E_CONVERGENCE      1.0E-8
D_CONVERGENCE      1.0E-8
DIIS_MAX_VECS      400
MBIS_MAXITER       8000
guess              read
}

E, wfn = energy('b3lyp', restart_file='last_wfn', return_wfn=True)
properties('b3lyp','MBIS_CHARGES', wfn=wfn)
wfn.to_file('last_wfn')
--------------------------------------------------------------------------

    Molecular point group: d2h
  Charge       = 0
  Multiplicity = 1
  Basis Set: CC-PVTZ
    Blend: CC-PVTZ
  Basis Set: (CC-PVTZ AUX)
    Blend: CC-PVTZ-JKFIT
  @DF-UKS Final Energy:  -109.38938734698398
    Total Energy =                       -109.3893873469839804
 Dipole X            :          0.0000000            0.0000000            0.0000000
 Dipole Y            :          0.0000000            0.0000000            0.0000000
 Dipole Z            :          0.0000000            0.0000000            0.0000000
 Magnitude           :                                                    0.0000000
    Molecular point group: d2h

    Geometry (in Angstrom), charge = 0, multiplicity = 1:

       Center              X                  Y                   Z               Mass
    ------------   -----------------  -----------------  -----------------  -----------------
         N            0.000000000000     0.000000000000    -0.447666500000    14.003074004430
         N            0.000000000000     0.000000000000     0.447666500000    14.003074004430

  Charge       = 0
  Multiplicity = 1
  Basis Set: CC-PVTZ
    Blend: CC-PVTZ
  Basis Set: (CC-PVTZ AUX)
    Blend: CC-PVTZ-JKFIT

    Orbital Energies [Eh]
    ---------------------

    Alpha Occupied:

       1Ag   -14.360939     1B1u  -14.348901     2Ag    -1.236820
       1B3u   -0.548869     1B2u   -0.548869     2B1u   -0.496658
       3Ag    -0.444138

    Alpha Virtual:

       1B2g    0.081800     1B3g    0.081800     3B1u    0.307529
       2B2u    0.360149     2B3u    0.360149     4Ag     0.388520
       5Ag     0.507321     2B2g    0.571033     2B3g    0.571033
       4B1u    0.803590     6Ag     0.827168     1B1g    0.827168
       5B1u    1.177880     3B3u    1.230577     3B2u    1.230577
       6B1u    1.343240     1Au     1.343240     7Ag     1.612586
       3B2g    1.696880     3B3g    1.696880     7B1u    2.469796
       4B3u    2.674381     4B2u    2.674381     8Ag     3.092365
       4B2g    3.298258     4B3g    3.298258     8B1u    3.368786
       5B3u    3.502224     5B2u    3.502224     9Ag     3.544017
       2B1g    3.544017     6B3u    3.830827     6B2u    3.830827
      10Ag     4.148869     5B2g    4.260579     5B3g    4.260579
       6B2g    4.310521     6B3g    4.310521    11Ag     4.415225
       3B1g    4.415227     9B1u    4.468516     2Au     4.468517
      12Ag     4.830493    10B1u    5.096454     7B3u    5.318204
       7B2u    5.318204    11B1u    5.450838     3Au     5.450839
      12B1u    6.524441     7B3g    7.310514     7B2g    7.310514
      13Ag     8.105800    13B1u   23.553248

    Beta Occupied:

       1Ag   -14.360939     1B1u  -14.348901     2Ag    -1.236820
       1B3u   -0.548869     1B2u   -0.548869     2B1u   -0.496658
       3Ag    -0.444138

    Beta Virtual:

       1B2g    0.081800     1B3g    0.081800     3B1u    0.307529
       2B2u    0.360149     2B3u    0.360149     4Ag     0.388520
       5Ag     0.507321     2B2g    0.571033     2B3g    0.571033
       4B1u    0.803590     6Ag     0.827168     1B1g    0.827168
       5B1u    1.177880     3B3u    1.230577     3B2u    1.230577
       6B1u    1.343240     1Au     1.343240     7Ag     1.612586
       3B2g    1.696880     3B3g    1.696880     7B1u    2.469796
       4B3u    2.674381     4B2u    2.674381     8Ag     3.092365
       4B2g    3.298258     4B3g    3.298258     8B1u    3.368786
       5B3u    3.502224     5B2u    3.502224     9Ag     3.544017
       2B1g    3.544017     6B3u    3.830827     6B2u    3.830827
      10Ag     4.148869     5B2g    4.260579     5B3g    4.260579
       6B2g    4.310521     6B3g    4.310521    11Ag     4.415225
       3B1g    4.415227     9B1u    4.468516     2Au     4.468517
      12Ag     4.830493    10B1u    5.096454     7B3u    5.318204
       7B2u    5.318204    11B1u    5.450838     3Au     5.450839
      12B1u    6.524441     7B3g    7.310514     7B2g    7.310514
      13Ag     8.105800    13B1u   23.553248

    Final Occupation by Irrep:
             Ag   B1g   B2g   B3g    Au   B1u   B2u   B3u
    DOCC [     3,    0,    0,    0,    0,    2,    1,    1 ]
    SOCC [     0,    0,    0,    0,    0,    0,    0,    0 ]
    NA   [     3,    0,    0,    0,    0,    2,    1,    1 ]
    NB   [     3,    0,    0,    0,    0,    2,    1,    1 ]

  @DF-UKS Final Energy:  -109.38938734717178

   => Energetics <=

    Nuclear Repulsion Energy =             28.9609377994891233
    One-Electron Energy =                -204.5748590740439568
    Two-Electron Energy =                  77.5719286346582919
    DFT Exchange-Correlation Energy =     -11.3473947072752477
    Empirical Dispersion Energy =           0.0000000000000000
    VV10 Nonlocal Energy =                  0.0000000000000000
    Total Energy =                       -109.3893873471717768

  UHF NO Occupations:
  HONO-2 :    1B3u 2.0000000
  HONO-1 :    2B1u 2.0000000
  HONO-0 :    3 Ag 2.0000000
  LUNO+0 :    4 Ag 0.0000000
  LUNO+1 :    3B1u 0.0000000
  LUNO+2 :    5 Ag 0.0000000
  LUNO+3 :    4B1u 0.0000000

Computation Completed

Properties will be evaluated at   0.000000,   0.000000,   0.000000 [a0]

Properties computed using the B3LYP density matrix

 Multipole Moments:

 ------------------------------------------------------------------------------------
     Multipole            Electronic (a.u.)      Nuclear  (a.u.)        Total (a.u.)
 ------------------------------------------------------------------------------------

 L = 1.  Multiply by 2.5417464519 to convert [e a0] to [Debye]
 Dipole X            :          0.0000000            0.0000000            0.0000000
 Dipole Y            :          0.0000000            0.0000000            0.0000000
 Dipole Z            :          0.0000000            0.0000000            0.0000000
 Magnitude           :                                                    0.0000000

 L = 2.  Multiply by 1.3450342976 to convert [e a0^2] to [Debye ang]
 Quadrupole XX       :         -7.0204600            0.0000000           -7.0204600
 Quadrupole XY       :          0.0000000            0.0000000            0.0000000
 Quadrupole XZ       :          0.0000000            0.0000000            0.0000000
 Quadrupole YY       :         -7.0204600            0.0000000           -7.0204600
 Quadrupole YZ       :          0.0000000            0.0000000            0.0000000
 Quadrupole ZZ       :        -18.5969018           10.0192442           -8.5776576
 Traceless XX        :          3.8588139           -3.3397481            0.5190659
 Traceless YY        :          3.8588139           -3.3397481            0.5190659
 Traceless ZZ        :         -7.7176279            6.6794961           -1.0381317

 ------------------------------------------------------------------------------------
  ==> Computing MBIS Charges <==

  Electron Count from Grid (Expected Number): 14.00000 (14.00000)
  Difference: -0.00000

  MBIS Charges: (a.u.)
   Center  Symbol  Z      Pop.       Charge
      1       N    7    7.000000    0.000000
      2       N    7    7.000000    0.000000

  MBIS Dipoles: [e a0]
   Center  Symbol  Z        X           Y           Z
      1       N    7   -0.000000   -0.000000    0.107205
      2       N    7    0.000000    0.000000   -0.107205

  MBIS Quadrupoles: [e a0^2]
   Center  Symbol  Z      XX        XY        XZ        YY        YZ        ZZ
      1       N    7   -3.5102   -0.0000   -0.0000   -3.5102    0.0000   -4.1074
      2       N    7   -3.5102   -0.0000   -0.0000   -3.5102   -0.0000   -4.1074

  MBIS Octupoles: [e a0^3]
   Center  Symbol  Z      XXX       XXY       XXZ       XYY       XYZ       XZZ       YYY       YYZ       YZZ       ZZZ
      1       N    7    0.0000    0.0000    0.1618    0.0000    0.0000   -0.0000    0.0000    0.1618   -0.0000    0.5106
      2       N    7    0.0000    0.0000   -0.1618   -0.0000   -0.0000    0.0000   -0.0000   -0.1618   -0.0000   -0.5106

  MBIS Radial Moments:
   Center  Symbol  Z      [a0^2]      [a0^3]      [a0^4]
      1       N    7   11.127904   22.424907   54.136519
      2       N    7   11.127904   22.424907   54.136519

  MBIS Valence Widths: [a0]
   Center  Symbol  Z     Width
      1       N    7    0.416750
      2       N    7    0.416750

*** tstop() called on Mac.lan at Sun Aug 10 17:05:57 2025
Module time:
	user time   =       4.84 seconds =       0.08 minutes
	system time =       2.28 seconds =       0.04 minutes
	total time  =          0 seconds =       0.00 minutes
Total time:
	user time   =      15.67 seconds =       0.26 minutes
	system time =       4.17 seconds =       0.07 minutes
	total time  =          2 seconds =       0.03 minutes

    Psi4 stopped on: Sunday, 10 August 2025 05:05PM
    Psi4 wall time for execution: 0:00:01.93

*** Psi4 exiting successfully. Buy a developer a beer!
