                               Psi4 1.9.1 release

  ==> Input File <==

--------------------------------------------------------------------------
molecule {
0 2
N           0.000000           0.000000           0.000000
C           0.000000           0.000000           1.381101
}

set {
basis              cc-pvtz
reference          uks
maxiter            500
DAMPING_PERCENTAGE 1
E_CONVERGENCE      1.0E-8
D_CONVERGENCE      1.0E-8
DIIS_MAX_VECS      400
MBIS_MAXITER       8000
guess              read
}

E, wfn = energy('b3lyp', restart_file='last_wfn', return_wfn=True)
properties('b3lyp','MBIS_CHARGES', wfn=wfn)
wfn.to_file('last_wfn')
--------------------------------------------------------------------------

    Molecular point group: c2v
  Charge       = 0
  Multiplicity = 2
  Basis Set: CC-PVTZ
    Blend: CC-PVTZ
  Basis Set: (CC-PVTZ AUX)
    Blend: CC-PVTZ-JKFIT
  @DF-UKS Final Energy:   -92.68528793081687
    Total Energy =                        -92.6852879308168554
 Dipole X            :          0.0000000            0.0000000            0.0000000
 Dipole Y            :          0.0000000            0.0000000            0.0000000
 Dipole Z            :          0.4129483            0.0018512            0.4147995
 Magnitude           :                                                    0.4147995
    Molecular point group: c2v

    Geometry (in Angstrom), charge = 0, multiplicity = 2:

       Center              X                  Y                   Z               Mass
    ------------   -----------------  -----------------  -----------------  -----------------
         N            0.000000000000     0.000000000000    -0.637355875585    14.003074004430
         C            0.000000000000     0.000000000000     0.743745124415    12.000000000000

  Charge       = 0
  Multiplicity = 2
  Basis Set: CC-PVTZ
    Blend: CC-PVTZ
  Basis Set: (CC-PVTZ AUX)
    Blend: CC-PVTZ-JKFIT

    Orbital Energies [Eh]
    ---------------------

    Alpha Occupied:

       1A1   -14.436465     2A1   -10.348165     3A1    -0.893846
       4A1    -0.545065     5A1    -0.411040     1B1    -0.357276
       1B2    -0.357276

    Alpha Virtual:

       2B2    -0.085597     2B1    -0.085597     6A1     0.152317
       7A1     0.287414     3B1     0.289174     3B2     0.289174
       8A1     0.357239     9A1     0.436729     4B2     0.502615
       4B1     0.502615     1A2     0.625038    10A1     0.625038
       5B1     0.747218     5B2     0.747218    11A1     0.870575
      12A1     1.078820     2A2     1.105274    13A1     1.105274
       6B1     1.415334     6B2     1.415334    14A1     1.633645
       7B2     1.961131     7B1     1.961131    15A1     2.126440
       8B2     2.625973     8B1     2.625973     3A2     2.632752
      16A1     2.632753     9B2     2.645405     9B1     2.645405
      17A1     2.880110    10B1     2.896398    10B2     2.896398
       4A2     2.900553    18A1     2.900556    19A1     2.916177
      11B2     3.254922    11B1     3.254922    20A1     3.372222
      12B1     3.878658    12B2     3.878658     5A2     4.129510
      21A1     4.129510    22A1     4.463337     6A2     4.463349
      23A1     4.514999    13B1     4.572848    13B2     4.572848
      24A1     4.985593    14B2     5.045550    14B1     5.045550
      25A1     5.396076    26A1     8.995134

    Beta Occupied:

       1A1   -14.429366     2A1   -10.335509     3A1    -0.866979
       4A1    -0.477619     1B1    -0.349893     1B2    -0.349893

    Beta Virtual:

       5A1    -0.255106     2B2    -0.067583     2B1    -0.067583
       6A1     0.163543     3B1     0.296438     3B2     0.296438
       7A1     0.320509     8A1     0.392059     9A1     0.469152
       4B2     0.503746     4B1     0.503746     1A2     0.632693
      10A1     0.632693     5B1     0.775474     5B2     0.775474
      11A1     0.883243     2A2     1.106220    12A1     1.106220
      13A1     1.114122     6B1     1.437643     6B2     1.437643
      14A1     1.662404     7B2     1.973261     7B1     1.973261
      15A1     2.174936     8B2     2.637497     8B1     2.637497
       3A2     2.654860    16A1     2.654860     9B2     2.666442
       9B1     2.666442     4A2     2.923391    17A1     2.923394
      10B2     2.930074    10B1     2.930074    18A1     2.932472
      19A1     2.968859    11B2     3.294760    11B1     3.294760
      20A1     3.419701    12B1     3.873601    12B2     3.873601
      21A1     4.139928     5A2     4.139928    22A1     4.464349
       6A2     4.464361    23A1     4.555116    13B2     4.604496
      13B1     4.604496    24A1     5.033929    14B2     5.078139
      14B1     5.078139    25A1     5.415931    26A1     9.014226

    Final Occupation by Irrep:
             A1    A2    B1    B2
    DOCC [     4,    0,    1,    1 ]
    SOCC [     1,    0,    0,    0 ]
    NA   [     5,    0,    1,    1 ]
    NB   [     4,    0,    1,    1 ]

  @DF-UKS Final Energy:   -92.68528793085136

   => Energetics <=

    Nuclear Repulsion Energy =             16.0925543085842371
    One-Electron Energy =                -156.4146913552729075
    Two-Electron Energy =                  57.3258227344421485
    DFT Exchange-Correlation Energy =      -9.6889736186048125
    Empirical Dispersion Energy =           0.0000000000000000
    VV10 Nonlocal Energy =                  0.0000000000000000
    Total Energy =                        -92.6852879308513593

  UHF NO Occupations:
  HONO-2 :    1 B1 1.9987161
  HONO-1 :    4 A1 1.9976222
  HONO-0 :    5 A1 1.0000000
  LUNO+0 :    6 A1 0.0023778
  LUNO+1 :    2 B2 0.0012839
  LUNO+2 :    2 B1 0.0012839
  LUNO+3 :    7 A1 0.0001808

Computation Completed

Properties will be evaluated at   0.000000,   0.000000,   0.000000 [a0]

Properties computed using the B3LYP density matrix

 Multipole Moments:

 ------------------------------------------------------------------------------------
     Multipole            Electronic (a.u.)      Nuclear  (a.u.)        Total (a.u.)
 ------------------------------------------------------------------------------------

 L = 1.  Multiply by 2.5417464519 to convert [e a0] to [Debye]
 Dipole X            :          0.0000000            0.0000000            0.0000000
 Dipole Y            :          0.0000000            0.0000000            0.0000000
 Dipole Z            :          0.4129483            0.0018512            0.4147995
 Magnitude           :                                                    0.4147995

 L = 2.  Multiply by 1.3450342976 to convert [e a0^2] to [Debye ang]
 Quadrupole XX       :         -8.6416601            0.0000000           -8.6416601
 Quadrupole XY       :          0.0000000            0.0000000            0.0000000
 Quadrupole XZ       :          0.0000000            0.0000000            0.0000000
 Quadrupole YY       :         -8.6416601            0.0000000           -8.6416601
 Quadrupole YZ       :          0.0000000            0.0000000            0.0000000
 Quadrupole ZZ       :        -29.6087579           22.0066815           -7.6020764
 Traceless XX        :          6.9890326           -7.3355605           -0.3465279
 Traceless YY        :          6.9890326           -7.3355605           -0.3465279
 Traceless ZZ        :        -13.9780652           14.6711210            0.6930558

 ------------------------------------------------------------------------------------
  ==> Computing MBIS Charges <==

  Electron Count from Grid (Expected Number): 13.00000 (13.00000)
  Difference:  0.00000

  MBIS Charges: (a.u.)
   Center  Symbol  Z      Pop.       Charge
      1       N    7    7.190117   -0.190117
      2       C    6    5.809883    0.190117

  MBIS Dipoles: [e a0]
   Center  Symbol  Z        X           Y           Z
      1       N    7   -0.000000   -0.000000   -0.240477
      2       C    6   -0.000000    0.000000    0.159090

  MBIS Quadrupoles: [e a0^2]
   Center  Symbol  Z      XX        XY        XZ        YY        YZ        ZZ
      1       N    7   -4.4302    0.0000   -0.0000   -4.4302    0.0000   -4.4345
      2       C    6   -4.2114    0.0000    0.0000   -4.2114    0.0000   -4.2938

  MBIS Octupoles: [e a0^3]
   Center  Symbol  Z      XXX       XXY       XXZ       XYY       XYZ       XZZ       YYY       YYZ       YZZ       ZZZ
      1       N    7    0.0000   -0.0000   -0.3565    0.0000    0.0000   -0.0000   -0.0000   -0.3565   -0.0000   -0.8868
      2       C    6   -0.0000   -0.0000    0.3216   -0.0000   -0.0000    0.0000    0.0000    0.3216   -0.0000    0.6606

  MBIS Radial Moments:
   Center  Symbol  Z      [a0^2]      [a0^3]      [a0^4]
      1       N    7   13.294926   28.696560   73.810212
      2       C    6   12.716697   30.669457   87.924232

  MBIS Valence Widths: [a0]
   Center  Symbol  Z     Width
      1       N    7    0.450874
      2       C    6    0.511142

*** tstop() called on Mac.lan at Sun Aug 10 17:14:13 2025
Module time:
	user time   =       4.91 seconds =       0.08 minutes
	system time =       2.12 seconds =       0.04 minutes
	total time  =          1 seconds =       0.02 minutes
Total time:
	user time   =      23.36 seconds =       0.39 minutes
	system time =       4.75 seconds =       0.08 minutes
	total time  =          3 seconds =       0.05 minutes

    Psi4 stopped on: Sunday, 10 August 2025 05:14PM
    Psi4 wall time for execution: 0:00:02.71

*** Psi4 exiting successfully. Buy a developer a beer!
