                               Psi4 1.9.1 release

  ==> Input File <==

--------------------------------------------------------------------------
molecule {
0 1
O           0.000000           0.000000           0.000000
C           0.000000           0.000000           1.151411
}

set {
basis              cc-pvtz
reference          uks
maxiter            500
DAMPING_PERCENTAGE 1
E_CONVERGENCE      1.0E-8
D_CONVERGENCE      1.0E-8
DIIS_MAX_VECS      400
MBIS_MAXITER       8000
guess              read
}

E, wfn = energy('b3lyp', restart_file='last_wfn', return_wfn=True)
properties('b3lyp','MBIS_CHARGES', wfn=wfn)
wfn.to_file('last_wfn')
--------------------------------------------------------------------------

    Molecular point group: c2v
  Charge       = 0
  Multiplicity = 1
  Basis Set: CC-PVTZ
    Blend: CC-PVTZ
  Basis Set: (CC-PVTZ AUX)
    Blend: CC-PVTZ-JKFIT
  @DF-UKS Final Energy:  -113.35587803263029
    Total Energy =                       -113.3558780326302866
 Dipole X            :          0.0000000            0.0000000            0.0000000
 Dipole Y            :          0.0000000            0.0000000            0.0000000
 Dipole Z            :         -0.0121865           -0.0023715           -0.0145580
 Magnitude           :                                                    0.0145580
    Molecular point group: c2v

    Geometry (in Angstrom), charge = 0, multiplicity = 1:

       Center              X                  Y                   Z               Mass
    ------------   -----------------  -----------------  -----------------  -----------------
         O            0.000000000000     0.000000000000    -0.493551496326    15.994914619570
         C            0.000000000000     0.000000000000     0.657859503674    12.000000000000

  Charge       = 0
  Multiplicity = 1
  Basis Set: CC-PVTZ
    Blend: CC-PVTZ
  Basis Set: (CC-PVTZ AUX)
    Blend: CC-PVTZ-JKFIT

    Orbital Energies [Eh]
    ---------------------

    Alpha Occupied:

       1A1   -19.240315     2A1   -10.303015     3A1    -1.157813
       4A1    -0.581753     1B2    -0.474259     1B1    -0.474259
       5A1    -0.385826

    Alpha Virtual:

       2B2    -0.042581     2B1    -0.042581     6A1     0.156579
       3B1     0.287395     3B2     0.287395     7A1     0.302360
       8A1     0.535613     9A1     0.568554     4B2     0.612770
       4B1     0.612770    10A1     0.633106     1A2     0.633106
       5B2     0.845269     5B1     0.845269    11A1     1.106663
      12A1     1.280901     2A2     1.491238    13A1     1.491238
       6B2     1.851616     6B1     1.851616    14A1     1.931414
       7B1     1.987364     7B2     1.987364    15A1     2.395838
       8B1     2.630085     8B2     2.630085    16A1     2.793360
       3A2     2.793360    17A1     2.923438     4A2     2.923439
       9B1     2.952618     9B2     2.952618    18A1     3.095721
      10B2     3.201448    10B1     3.201448    19A1     3.328705
      11B1     4.025253    11B2     4.025253    20A1     4.336317
      12B1     5.066356    12B2     5.066356     5A2     5.438184
      21A1     5.438185    22A1     6.051788    13B2     6.154687
      13B1     6.154687    23A1     6.211639     6A2     6.211655
      24A1     6.663080    14B1     6.718175    14B2     6.718175
      25A1     6.929058    26A1    11.845912

    Beta Occupied:

       1A1   -19.240315     2A1   -10.303015     3A1    -1.157813
       4A1    -0.581753     1B2    -0.474259     1B1    -0.474259
       5A1    -0.385826

    Beta Virtual:

       2B2    -0.042581     2B1    -0.042581     6A1     0.156579
       3B1     0.287395     3B2     0.287395     7A1     0.302360
       8A1     0.535613     9A1     0.568554     4B2     0.612770
       4B1     0.612770    10A1     0.633106     1A2     0.633106
       5B2     0.845269     5B1     0.845269    11A1     1.106663
      12A1     1.280901     2A2     1.491238    13A1     1.491238
       6B2     1.851616     6B1     1.851616    14A1     1.931414
       7B1     1.987364     7B2     1.987364    15A1     2.395838
       8B1     2.630085     8B2     2.630085    16A1     2.793360
       3A2     2.793360    17A1     2.923438     4A2     2.923439
       9B1     2.952618     9B2     2.952618    18A1     3.095721
      10B2     3.201448    10B1     3.201448    19A1     3.328705
      11B1     4.025253    11B2     4.025253    20A1     4.336317
      12B1     5.066356    12B2     5.066356     5A2     5.438184
      21A1     5.438185    22A1     6.051788    13B2     6.154687
      13B1     6.154687    23A1     6.211639     6A2     6.211655
      24A1     6.663080    14B1     6.718175    14B2     6.718175
      25A1     6.929058    26A1    11.845912

    Final Occupation by Irrep:
             A1    A2    B1    B2
    DOCC [     5,    0,    1,    1 ]
    SOCC [     0,    0,    0,    0 ]
    NA   [     5,    0,    1,    1 ]
    NB   [     5,    0,    1,    1 ]

  @DF-UKS Final Energy:  -113.35587803273729

   => Energetics <=

    Nuclear Repulsion Energy =             22.0603295540515063
    One-Electron Energy =                -197.5315326769555213
    Two-Electron Energy =                  73.3294164377609121
    DFT Exchange-Correlation Energy =     -11.2140913475942074
    Empirical Dispersion Energy =           0.0000000000000000
    VV10 Nonlocal Energy =                  0.0000000000000000
    Total Energy =                       -113.3558780327372943

  UHF NO Occupations:
  HONO-2 :    3 A1 2.0000000
  HONO-1 :    4 A1 2.0000000
  HONO-0 :    5 A1 2.0000000
  LUNO+0 :    6 A1 0.0000000
  LUNO+1 :    7 A1 0.0000000
  LUNO+2 :    8 A1 0.0000000
  LUNO+3 :    9 A1 0.0000000

Computation Completed

Properties will be evaluated at   0.000000,   0.000000,   0.000000 [a0]

Properties computed using the B3LYP density matrix

 Multipole Moments:

 ------------------------------------------------------------------------------------
     Multipole            Electronic (a.u.)      Nuclear  (a.u.)        Total (a.u.)
 ------------------------------------------------------------------------------------

 L = 1.  Multiply by 2.5417464519 to convert [e a0] to [Debye]
 Dipole X            :          0.0000000            0.0000000            0.0000000
 Dipole Y            :          0.0000000            0.0000000            0.0000000
 Dipole Z            :         -0.0121865           -0.0023715           -0.0145580
 Magnitude           :                                                    0.0145580

 L = 2.  Multiply by 1.3450342976 to convert [e a0^2] to [Debye ang]
 Quadrupole XX       :         -7.6187256            0.0000000           -7.6187256
 Quadrupole XY       :          0.0000000            0.0000000            0.0000000
 Quadrupole XZ       :          0.0000000            0.0000000            0.0000000
 Quadrupole YY       :         -7.6187256            0.0000000           -7.6187256
 Quadrupole YZ       :          0.0000000            0.0000000            0.0000000
 Quadrupole ZZ       :        -25.3105971           16.2319873           -9.0786098
 Traceless XX        :          5.8972905           -5.4106624            0.4866281
 Traceless YY        :          5.8972905           -5.4106624            0.4866281
 Traceless ZZ        :        -11.7945810           10.8213249           -0.9732561

 ------------------------------------------------------------------------------------
  ==> Computing MBIS Charges <==

  Electron Count from Grid (Expected Number): 14.00000 (14.00000)
  Difference:  0.00000

  MBIS Charges: (a.u.)
   Center  Symbol  Z      Pop.       Charge
      1       O    8    8.148292   -0.148292
      2       C    6    5.851709    0.148291

  MBIS Dipoles: [e a0]
   Center  Symbol  Z        X           Y           Z
      1       O    8   -0.000000   -0.000000   -0.056533
      2       C    6    0.000000    0.000000   -0.280684

  MBIS Quadrupoles: [e a0^2]
   Center  Symbol  Z      XX        XY        XZ        YY        YZ        ZZ
      1       O    8   -3.6566   -0.0000   -0.0000   -3.6566    0.0000   -3.8506
      2       C    6   -3.9622   -0.0000    0.0000   -3.9622    0.0000   -4.7357

  MBIS Octupoles: [e a0^3]
   Center  Symbol  Z      XXX       XXY       XXZ       XYY       XYZ       XZZ       YYY       YYZ       YZZ       ZZZ
      1       O    8   -0.0000    0.0000    0.0044   -0.0000   -0.0000   -0.0000   -0.0000    0.0044    0.0000   -0.0811
      2       C    6    0.0000   -0.0000   -0.2358    0.0000    0.0000    0.0000    0.0000   -0.2358    0.0000   -0.7652

  MBIS Radial Moments:
   Center  Symbol  Z      [a0^2]      [a0^3]      [a0^4]
      1       O    8   11.163760   20.484517   45.071446
      2       C    6   12.660062   30.280804   85.850763

  MBIS Valence Widths: [a0]
   Center  Symbol  Z     Width
      1       O    8    0.379457
      2       C    6    0.506743

*** tstop() called on Mac.lan at Sun Aug 10 17:16:29 2025
Module time:
	user time   =       3.34 seconds =       0.06 minutes
	system time =       2.46 seconds =       0.04 minutes
	total time  =          0 seconds =       0.00 minutes
Total time:
	user time   =      17.26 seconds =       0.29 minutes
	system time =       4.77 seconds =       0.08 minutes
	total time  =          2 seconds =       0.03 minutes

    Psi4 stopped on: Sunday, 10 August 2025 05:16PM
    Psi4 wall time for execution: 0:00:02.14

*** Psi4 exiting successfully. Buy a developer a beer!
