                               Psi4 1.9.1 release

  ==> Input File <==

--------------------------------------------------------------------------
molecule {
0 1
H           0.000000           0.000000           0.000000
H           0.000000           0.000000           0.650386
}

set {
basis              cc-pvtz
reference          uks
maxiter            500
DAMPING_PERCENTAGE 1
E_CONVERGENCE      1.0E-8
D_CONVERGENCE      1.0E-8
DIIS_MAX_VECS      400
MBIS_MAXITER       8000
guess              read
}

E, wfn = energy('b3lyp', restart_file='last_wfn', return_wfn=True)
properties('b3lyp','MBIS_CHARGES', wfn=wfn)
wfn.to_file('last_wfn')
--------------------------------------------------------------------------

    Molecular point group: d2h
  Charge       = 0
  Multiplicity = 1
  Basis Set: CC-PVTZ
    Blend: CC-PVTZ
  Basis Set: (CC-PVTZ AUX)
    Blend: CC-PVTZ-JKFIT
  @DF-UKS Final Energy:    -1.17299091049574
    Total Energy =                         -1.1729909104957403
 Dipole X            :          0.0000000            0.0000000            0.0000000
 Dipole Y            :          0.0000000            0.0000000            0.0000000
 Dipole Z            :          0.0000000            0.0000000            0.0000000
 Magnitude           :                                                    0.0000000
    Molecular point group: d2h

    Geometry (in Angstrom), charge = 0, multiplicity = 1:

       Center              X                  Y                   Z               Mass
    ------------   -----------------  -----------------  -----------------  -----------------
         H            0.000000000000     0.000000000000    -0.325193000000     1.007825032230
         H            0.000000000000     0.000000000000     0.325193000000     1.007825032230

  Charge       = 0
  Multiplicity = 1
  Basis Set: CC-PVTZ
    Blend: CC-PVTZ
  Basis Set: (CC-PVTZ AUX)
    Blend: CC-PVTZ-JKFIT

    Orbital Energies [Eh]
    ---------------------

    Alpha Occupied:

       1Ag    -0.454505

    Alpha Virtual:

       1B1u    0.075139     2Ag     0.189227     2B1u    0.506239
       1B3u    0.520652     1B2u    0.520652     3Ag     0.935735
       1B3g    0.952581     1B2g    0.952581     3B1u    1.393253
       4Ag     2.041309     4B1u    2.099047     5Ag     2.895892
       1B1g    2.895892     2B2u    3.119050     2B3u    3.119050
       6Ag     3.388688     2B3g    3.517072     2B2g    3.517072
       5B1u    3.889525     1Au     3.889525     3B2u    3.901801
       3B3u    3.901801     6B1u    4.638286     3B3g    5.767421
       3B2g    5.767421     7Ag     5.839722     7B1u    7.136500

    Beta Occupied:

       1Ag    -0.454505

    Beta Virtual:

       1B1u    0.075139     2Ag     0.189227     2B1u    0.506239
       1B3u    0.520652     1B2u    0.520652     3Ag     0.935735
       1B3g    0.952581     1B2g    0.952581     3B1u    1.393253
       4Ag     2.041309     4B1u    2.099047     5Ag     2.895892
       1B1g    2.895892     2B2u    3.119050     2B3u    3.119050
       6Ag     3.388688     2B3g    3.517072     2B2g    3.517072
       5B1u    3.889525     1Au     3.889525     3B2u    3.901801
       3B3u    3.901801     6B1u    4.638286     3B3g    5.767421
       3B2g    5.767421     7Ag     5.839722     7B1u    7.136500

    Final Occupation by Irrep:
             Ag   B1g   B2g   B3g    Au   B1u   B2u   B3u
    DOCC [     1,    0,    0,    0,    0,    0,    0,    0 ]
    SOCC [     0,    0,    0,    0,    0,    0,    0,    0 ]
    NA   [     1,    0,    0,    0,    0,    0,    0,    0 ]
    NB   [     1,    0,    0,    0,    0,    0,    0,    0 ]

  @DF-UKS Final Energy:    -1.17299091063635

   => Energetics <=

    Nuclear Repulsion Energy =              0.8136356112677702
    One-Electron Energy =                  -2.6307079130859528
    Two-Electron Energy =                   1.2434677815369695
    DFT Exchange-Correlation Energy =      -0.5993863903551349
    Empirical Dispersion Energy =           0.0000000000000000
    VV10 Nonlocal Energy =                  0.0000000000000000
    Total Energy =                         -1.1729909106363479

  UHF NO Occupations:
  HONO-0 :    1 Ag 2.0000000
  LUNO+0 :    2 Ag 0.0000000
  LUNO+1 :    3 Ag 0.0000000
  LUNO+2 :    4 Ag 0.0000000
  LUNO+3 :    5 Ag 0.0000000

Computation Completed

Properties will be evaluated at   0.000000,   0.000000,   0.000000 [a0]

Properties computed using the B3LYP density matrix

 Multipole Moments:

 ------------------------------------------------------------------------------------
     Multipole            Electronic (a.u.)      Nuclear  (a.u.)        Total (a.u.)
 ------------------------------------------------------------------------------------

 L = 1.  Multiply by 2.5417464519 to convert [e a0] to [Debye]
 Dipole X            :          0.0000000            0.0000000            0.0000000
 Dipole Y            :          0.0000000            0.0000000            0.0000000
 Dipole Z            :          0.0000000            0.0000000            0.0000000
 Magnitude           :                                                    0.0000000

 L = 2.  Multiply by 1.3450342976 to convert [e a0^2] to [Debye ang]
 Quadrupole XX       :         -1.4651480            0.0000000           -1.4651480
 Quadrupole XY       :          0.0000000            0.0000000            0.0000000
 Quadrupole XZ       :          0.0000000            0.0000000            0.0000000
 Quadrupole YY       :         -1.4651480            0.0000000           -1.4651480
 Quadrupole YZ       :          0.0000000            0.0000000            0.0000000
 Quadrupole ZZ       :         -1.8872920            0.7552837           -1.1320083
 Traceless XX        :          0.1407147           -0.2517612           -0.1110466
 Traceless YY        :          0.1407147           -0.2517612           -0.1110466
 Traceless ZZ        :         -0.2814293            0.5035225            0.2220931

 ------------------------------------------------------------------------------------
  ==> Computing MBIS Charges <==

  Electron Count from Grid (Expected Number):  2.00000 ( 2.00000)
  Difference: -0.00000

  MBIS Charges: (a.u.)
   Center  Symbol  Z      Pop.       Charge
      1       H    1    1.000000    0.000000
      2       H    1    1.000000    0.000000

  MBIS Dipoles: [e a0]
   Center  Symbol  Z        X           Y           Z
      1       H    1    0.000000    0.000000   -0.068902
      2       H    1   -0.000000   -0.000000    0.068902

  MBIS Quadrupoles: [e a0^2]
   Center  Symbol  Z      XX        XY        XZ        YY        YZ        ZZ
      1       H    1   -0.7326    0.0000   -0.0000   -0.7326   -0.0000   -0.6507
      2       H    1   -0.7326    0.0000   -0.0000   -0.7326    0.0000   -0.6507

  MBIS Octupoles: [e a0^3]
   Center  Symbol  Z      XXX       XXY       XXZ       XYY       XYZ       XZZ       YYY       YYZ       YZZ       ZZZ
      1       H    1    0.0000    0.0000   -0.0292    0.0000    0.0000    0.0000   -0.0000   -0.0292    0.0000   -0.0326
      2       H    1   -0.0000    0.0000    0.0292    0.0000    0.0000    0.0000    0.0000    0.0292    0.0000    0.0326

  MBIS Radial Moments:
   Center  Symbol  Z      [a0^2]      [a0^3]      [a0^4]
      1       H    1    2.115836    4.565101   12.033003
      2       H    1    2.115836    4.565101   12.033003

  MBIS Valence Widths: [a0]
   Center  Symbol  Z     Width
      1       H    1    0.416801
      2       H    1    0.416801

*** tstop() called on Mac.lan at Sun Aug 10 16:59:18 2025
Module time:
	user time   =       0.49 seconds =       0.01 minutes
	system time =       1.50 seconds =       0.03 minutes
	total time  =          1 seconds =       0.02 minutes
Total time:
	user time   =       1.41 seconds =       0.02 minutes
	system time =       3.70 seconds =       0.06 minutes
	total time  =          1 seconds =       0.02 minutes

    Psi4 stopped on: Sunday, 10 August 2025 04:59PM
    Psi4 wall time for execution: 0:00:00.78

*** Psi4 exiting successfully. Buy a developer a beer!
