                               Psi4 1.9.1 release

  ==> Input File <==

--------------------------------------------------------------------------
molecule {
0 3
C           0.000000           0.000000           0.000000
C           0.000000           0.000000           0.876728
}

set {
basis              cc-pvtz
reference          uks
maxiter            500
DAMPING_PERCENTAGE 1
E_CONVERGENCE      1.0E-8
D_CONVERGENCE      1.0E-8
DIIS_MAX_VECS      400
MBIS_MAXITER       8000
guess              read
}

E, wfn = energy('b3lyp', restart_file='last_wfn', return_wfn=True)
properties('b3lyp','MBIS_CHARGES', wfn=wfn)
wfn.to_file('last_wfn')
--------------------------------------------------------------------------

    Molecular point group: d2h
  Charge       = 0
  Multiplicity = 3
  Basis Set: CC-PVTZ
    Blend: CC-PVTZ
  Basis Set: (CC-PVTZ AUX)
    Blend: CC-PVTZ-JKFIT
  @DF-UKS Final Energy:   -75.51192492393936
    Total Energy =                        -75.5119249239393753
 Dipole X            :          0.0000000            0.0000000            0.0000000
 Dipole Y            :          0.0000000            0.0000000            0.0000000
 Dipole Z            :          0.0000000           -0.0000000           -0.0000000
 Magnitude           :                                                    0.0000000
    Molecular point group: d2h

    Geometry (in Angstrom), charge = 0, multiplicity = 3:

       Center              X                  Y                   Z               Mass
    ------------   -----------------  -----------------  -----------------  -----------------
         C            0.000000000000     0.000000000000    -0.438364000000    12.000000000000
         C            0.000000000000     0.000000000000     0.438364000000    12.000000000000

  Charge       = 0
  Multiplicity = 3
  Basis Set: CC-PVTZ
    Blend: CC-PVTZ
  Basis Set: (CC-PVTZ AUX)
    Blend: CC-PVTZ-JKFIT

    Orbital Energies [Eh]
    ---------------------

    Alpha Occupied:

       1Ag   -10.200120     1B1u  -10.159688     2Ag    -0.827260
       1B2u   -0.412161     1B3u   -0.412161     2B1u   -0.396428
       3Ag    -0.374352

    Alpha Virtual:

       1B3g    0.113832     1B2g    0.113832     3B1u    0.180832
       4Ag     0.240531     2B2u    0.244471     2B3u    0.244471
       5Ag     0.370601     2B2g    0.445262     2B3g    0.445262
       1B1g    0.586938     6Ag     0.586938     4B1u    0.617508
       3B2u    0.877948     3B3u    0.877948     5B1u    0.911234
       1Au     0.945459     6B1u    0.945459     7Ag     1.056778
       3B2g    1.158564     3B3g    1.158564     4B3u    1.805527
       4B2u    1.805527     7B1u    2.127306     8Ag     2.256011
       4B2g    2.415929     4B3g    2.415929     5B2u    2.451247
       5B3u    2.451247     9Ag     2.518290     2B1g    2.518290
       8B1u    2.528321     6B2u    2.706133     6B3u    2.706133
      10Ag     2.844307     2Au     2.931243     9B1u    2.931244
       5B2g    3.013365     5B3g    3.013365     3B1g    3.074874
      11Ag     3.074874     6B3g    3.106619     6B2g    3.106619
      12Ag     3.459626    10B1u    3.612813     7B3u    4.003107
       7B2u    4.003107    11B1u    4.215844     3Au     4.215844
       7B2g    5.427207     7B3g    5.427207    12B1u    5.483069
      13Ag     6.177609    13B1u   18.986167

    Beta Occupied:

       1Ag   -10.176419     1B1u  -10.137188     2Ag    -0.784357
       1B2u   -0.384983     1B3u   -0.384983

    Beta Virtual:

       2B1u   -0.181642     3Ag    -0.146396     1B2g    0.152076
       1B3g    0.152076     3B1u    0.212919     2B2u    0.251188
       2B3u    0.251188     4Ag     0.276987     5Ag     0.425198
       2B2g    0.478413     2B3g    0.478413     1B1g    0.596048
       6Ag     0.596048     4B1u    0.665208     3B2u    0.930378
       3B3u    0.930378     1Au     0.967456     5B1u    0.967456
       6B1u    0.977856     7Ag     1.128050     3B2g    1.193284
       3B3g    1.193284     4B3u    1.820640     4B2u    1.820640
       7B1u    2.246724     8Ag     2.300160     4B2g    2.441738
       4B3g    2.441738     5B2u    2.462240     5B3u    2.462240
       2B1g    2.527815     9Ag     2.527815     8B1u    2.574653
       6B2u    2.804122     6B3u    2.804122     2Au     2.991707
       9B1u    2.991711    10Ag     2.992469     5B2g    3.111074
       5B3g    3.111074     6B3g    3.131428     6B2g    3.131428
       3B1g    3.135181    11Ag     3.135184    12Ag     3.530767
      10B1u    3.730801     7B3u    4.072859     7B2u    4.072859
       3Au     4.247842    11B1u    4.247846     7B2g    5.493077
       7B3g    5.493077    12B1u    5.562631    13Ag     6.228961
      13B1u   19.033714

    Final Occupation by Irrep:
             Ag   B1g   B2g   B3g    Au   B1u   B2u   B3u
    DOCC [     2,    0,    0,    0,    0,    1,    1,    1 ]
    SOCC [     1,    0,    0,    0,    0,    1,    0,    0 ]
    NA   [     3,    0,    0,    0,    0,    2,    1,    1 ]
    NB   [     2,    0,    0,    0,    0,    1,    1,    1 ]

  @DF-UKS Final Energy:   -75.51192492995315

   => Energetics <=

    Nuclear Repulsion Energy =             21.7289508081411924
    One-Electron Energy =                -143.3739106869026614
    Two-Electron Energy =                  55.1056791150044418
    DFT Exchange-Correlation Energy =      -8.9726441661961189
    Empirical Dispersion Energy =           0.0000000000000000
    VV10 Nonlocal Energy =                  0.0000000000000000
    Total Energy =                        -75.5119249299531532

  UHF NO Occupations:
  HONO-2 :    1B2u 1.9996145
  HONO-1 :    3 Ag 1.0000000
  HONO-0 :    2B1u 1.0000000
  LUNO+0 :    2B3u 0.0003855
  LUNO+1 :    2B2u 0.0003855
  LUNO+2 :    4 Ag 0.0003624
  LUNO+3 :    3B1u 0.0000009

Computation Completed

Properties will be evaluated at   0.000000,   0.000000,   0.000000 [a0]

Properties computed using the B3LYP density matrix

 Multipole Moments:

 ------------------------------------------------------------------------------------
     Multipole            Electronic (a.u.)      Nuclear  (a.u.)        Total (a.u.)
 ------------------------------------------------------------------------------------

 L = 1.  Multiply by 2.5417464519 to convert [e a0] to [Debye]
 Dipole X            :          0.0000000            0.0000000            0.0000000
 Dipole Y            :          0.0000000            0.0000000            0.0000000
 Dipole Z            :          0.0000000           -0.0000000           -0.0000000
 Magnitude           :                                                    0.0000000

 L = 2.  Multiply by 1.3450342976 to convert [e a0^2] to [Debye ang]
 Quadrupole XX       :         -7.7313204            0.0000000           -7.7313204
 Quadrupole XY       :          0.0000000            0.0000000            0.0000000
 Quadrupole XZ       :          0.0000000            0.0000000            0.0000000
 Quadrupole YY       :         -7.7313204            0.0000000           -7.7313204
 Quadrupole YZ       :          0.0000000            0.0000000            0.0000000
 Quadrupole ZZ       :        -15.1542061            8.2347182           -6.9194879
 Traceless XX        :          2.4742952           -2.7449061           -0.2706108
 Traceless YY        :          2.4742952           -2.7449061           -0.2706108
 Traceless ZZ        :         -4.9485905            5.4898121            0.5412217

 ------------------------------------------------------------------------------------
  ==> Computing MBIS Charges <==

  Electron Count from Grid (Expected Number): 12.00000 (12.00000)
  Difference:  0.00000

  MBIS Charges: (a.u.)
   Center  Symbol  Z      Pop.       Charge
      1       C    6    6.000000   -0.000000
      2       C    6    6.000000   -0.000000

  MBIS Dipoles: [e a0]
   Center  Symbol  Z        X           Y           Z
      1       C    6   -0.000000    0.000000   -0.305823
      2       C    6   -0.000000   -0.000000    0.305823

  MBIS Quadrupoles: [e a0^2]
   Center  Symbol  Z      XX        XY        XZ        YY        YZ        ZZ
      1       C    6   -3.8657    0.0000   -0.0000   -3.8657   -0.0000   -3.9664
      2       C    6   -3.8657    0.0000    0.0000   -3.8657    0.0000   -3.9664

  MBIS Octupoles: [e a0^3]
   Center  Symbol  Z      XXX       XXY       XXZ       XYY       XYZ       XZZ       YYY       YYZ       YZZ       ZZZ
      1       C    6   -0.0000   -0.0000   -0.1779   -0.0000    0.0000   -0.0000    0.0000   -0.1779    0.0000    0.0299
      2       C    6   -0.0000   -0.0000    0.1779   -0.0000   -0.0000   -0.0000    0.0000    0.1779    0.0000   -0.0299

  MBIS Radial Moments:
   Center  Symbol  Z      [a0^2]      [a0^3]      [a0^4]
      1       C    6   11.697744   26.862558   74.366028
      2       C    6   11.697744   26.862558   74.366028

  MBIS Valence Widths: [a0]
   Center  Symbol  Z     Width
      1       C    6    0.473803
      2       C    6    0.473803

*** tstop() called on Mac.lan at Sun Aug 10 17:03:52 2025
Module time:
	user time   =       3.64 seconds =       0.06 minutes
	system time =       2.16 seconds =       0.04 minutes
	total time  =          1 seconds =       0.02 minutes
Total time:
	user time   =      22.86 seconds =       0.38 minutes
	system time =       4.65 seconds =       0.08 minutes
	total time  =          3 seconds =       0.05 minutes

    Psi4 stopped on: Sunday, 10 August 2025 05:03PM
    Psi4 wall time for execution: 0:00:02.72

*** Psi4 exiting successfully. Buy a developer a beer!
