                               Psi4 1.9.1 release

  ==> Input File <==

--------------------------------------------------------------------------
molecule {
0 2
N           0.000000           0.000000           0.000000
C           0.000000           0.000000           1.082100
}

set {
basis              cc-pvtz
reference          uks
maxiter            500
DAMPING_PERCENTAGE 1
E_CONVERGENCE      1.0E-8
D_CONVERGENCE      1.0E-8
DIIS_MAX_VECS      400
MBIS_MAXITER       8000
guess              read
}

E, wfn = energy('b3lyp', restart_file='last_wfn', return_wfn=True)
properties('b3lyp','MBIS_CHARGES', wfn=wfn)
wfn.to_file('last_wfn')
--------------------------------------------------------------------------

    Molecular point group: c2v
  Charge       = 0
  Multiplicity = 2
  Basis Set: CC-PVTZ
    Blend: CC-PVTZ
  Basis Set: (CC-PVTZ AUX)
    Blend: CC-PVTZ-JKFIT
  @DF-UKS Final Energy:   -92.72990422218041
    Total Energy =                        -92.7299042221804086
 Dipole X            :          0.0000000            0.0000000            0.0000000
 Dipole Y            :          0.0000000            0.0000000            0.0000000
 Dipole Z            :          0.5787643            0.0014504            0.5802147
 Magnitude           :                                                    0.5802147
    Molecular point group: c2v

    Geometry (in Angstrom), charge = 0, multiplicity = 2:

       Center              X                  Y                   Z               Mass
    ------------   -----------------  -----------------  -----------------  -----------------
         N            0.000000000000     0.000000000000    -0.499371728042    14.003074004430
         C            0.000000000000     0.000000000000     0.582728271958    12.000000000000

  Charge       = 0
  Multiplicity = 2
  Basis Set: CC-PVTZ
    Blend: CC-PVTZ
  Basis Set: (CC-PVTZ AUX)
    Blend: CC-PVTZ-JKFIT

    Orbital Energies [Eh]
    ---------------------

    Alpha Occupied:

       1A1   -14.362170     2A1   -10.272369     3A1    -0.993538
       4A1    -0.487716     1B2    -0.413912     1B1    -0.413912
       5A1    -0.409664

    Alpha Virtual:

       2B2     0.014153     2B1     0.014153     6A1     0.168478
       7A1     0.260701     3B2     0.277949     3B1     0.277949
       8A1     0.441938     4B1     0.520329     4B2     0.520329
       9A1     0.617341     1A2     0.617341    10A1     0.685571
       5B1     0.852252     5B2     0.852252    11A1     0.903707
       2A2     1.183602    12A1     1.183602    13A1     1.374729
       6B1     1.539499     6B2     1.539499    14A1     1.800716
       7B1     1.937616     7B2     1.937616    15A1     2.238195
       8B2     2.610069     8B1     2.610069    16A1     2.730998
      17A1     2.742217     3A2     2.742217     9B1     2.819731
       9B2     2.819731    18A1     2.912696     4A2     2.912696
      10B1     2.969081    10B2     2.969081    19A1     3.150594
      11B1     3.451987    11B2     3.451987    12B2     3.955566
      12B1     3.955566    20A1     4.111629     5A2     4.475735
      21A1     4.475738     6A2     4.620925    22A1     4.620925
      13B1     4.848465    13B2     4.848465    23A1     5.097784
      24A1     5.391898    14B1     5.754693    14B2     5.754693
      25A1     6.454846    26A1    13.919487

    Beta Occupied:

       1A1   -14.358432     2A1   -10.255446     3A1    -0.972152
       4A1    -0.421839     1B2    -0.404555     1B1    -0.404555

    Beta Virtual:

       5A1    -0.250538     2B2     0.036927     2B1     0.036927
       6A1     0.175499     3B2     0.288514     3B1     0.288514
       7A1     0.302720     8A1     0.453243     4B1     0.523014
       4B2     0.523014     9A1     0.628749     1A2     0.628749
      10A1     0.730880     5B1     0.882453     5B2     0.882453
      11A1     0.913098     2A2     1.186213    12A1     1.186213
      13A1     1.415870     6B1     1.553613     6B2     1.553613
      14A1     1.825999     7B1     1.954173     7B2     1.954173
      15A1     2.289381     8B2     2.628017     8B1     2.628017
      16A1     2.754550     3A2     2.754551    17A1     2.770219
       9B1     2.879229     9B2     2.879229    18A1     2.962675
       4A2     2.962675    10B1     2.989825    10B2     2.989825
      19A1     3.235389    11B1     3.486068    11B2     3.486068
      12B2     3.951338    12B1     3.951338    20A1     4.142166
       5A2     4.470537    21A1     4.470540     6A2     4.631449
      22A1     4.631450    13B1     4.866667    13B2     4.866667
      23A1     5.129395    24A1     5.419275    14B1     5.780977
      14B2     5.780977    25A1     6.468729    26A1    13.942235

    Final Occupation by Irrep:
             A1    A2    B1    B2
    DOCC [     4,    0,    1,    1 ]
    SOCC [     1,    0,    0,    0 ]
    NA   [     5,    0,    1,    1 ]
    NB   [     4,    0,    1,    1 ]

  @DF-UKS Final Energy:   -92.72990422138146

   => Energetics <=

    Nuclear Repulsion Energy =             20.5391764607152751
    One-Electron Energy =                -165.2314932569287294
    Two-Electron Energy =                  61.8759418211833605
    DFT Exchange-Correlation Energy =      -9.9135292463513700
    Empirical Dispersion Energy =           0.0000000000000000
    VV10 Nonlocal Energy =                  0.0000000000000000
    Total Energy =                        -92.7299042213814602

  UHF NO Occupations:
  HONO-2 :    1 B1 1.9986880
  HONO-1 :    1 B2 1.9986880
  HONO-0 :    5 A1 1.0000000
  LUNO+0 :    2 B2 0.0013120
  LUNO+1 :    2 B1 0.0013120
  LUNO+2 :    6 A1 0.0008347
  LUNO+3 :    7 A1 0.0000739

Computation Completed

Properties will be evaluated at   0.000000,   0.000000,   0.000000 [a0]

Properties computed using the B3LYP density matrix

 Multipole Moments:

 ------------------------------------------------------------------------------------
     Multipole            Electronic (a.u.)      Nuclear  (a.u.)        Total (a.u.)
 ------------------------------------------------------------------------------------

 L = 1.  Multiply by 2.5417464519 to convert [e a0] to [Debye]
 Dipole X            :          0.0000000            0.0000000            0.0000000
 Dipole Y            :          0.0000000            0.0000000            0.0000000
 Dipole Z            :          0.5787643            0.0014504            0.5802148
 Magnitude           :                                                    0.5802148

 L = 2.  Multiply by 1.3450342976 to convert [e a0^2] to [Debye ang]
 Quadrupole XX       :         -7.9110850            0.0000000           -7.9110850
 Quadrupole XY       :          0.0000000            0.0000000            0.0000000
 Quadrupole XZ       :          0.0000000            0.0000000            0.0000000
 Quadrupole YY       :         -7.9110850            0.0000000           -7.9110850
 Quadrupole YZ       :          0.0000000            0.0000000            0.0000000
 Quadrupole ZZ       :        -21.2828886           13.5094750           -7.7734136
 Traceless XX        :          4.4572679           -4.5031583           -0.0458905
 Traceless YY        :          4.4572679           -4.5031583           -0.0458905
 Traceless ZZ        :         -8.9145358            9.0063167            0.0917809

 ------------------------------------------------------------------------------------
  ==> Computing MBIS Charges <==

  Electron Count from Grid (Expected Number): 13.00000 (13.00000)
  Difference: -0.00000

  MBIS Charges: (a.u.)
   Center  Symbol  Z      Pop.       Charge
      1       N    7    7.293935   -0.293935
      2       C    6    5.706064    0.293936

  MBIS Dipoles: [e a0]
   Center  Symbol  Z        X           Y           Z
      1       N    7   -0.000000   -0.000000   -0.151406
      2       C    6   -0.000000   -0.000000    0.130560

  MBIS Quadrupoles: [e a0^2]
   Center  Symbol  Z      XX        XY        XZ        YY        YZ        ZZ
      1       N    7   -4.1987    0.0000   -0.0000   -4.1987   -0.0000   -4.5541
      2       C    6   -3.7123    0.0000   -0.0000   -3.7123    0.0000   -3.8873

  MBIS Octupoles: [e a0^3]
   Center  Symbol  Z      XXX       XXY       XXZ       XYY       XYZ       XZZ       YYY       YYZ       YZZ       ZZZ
      1       N    7   -0.0000   -0.0000   -0.1709   -0.0000    0.0000   -0.0000   -0.0000   -0.1709    0.0000   -0.1992
      2       C    6   -0.0000   -0.0000    0.0602   -0.0000    0.0000   -0.0000   -0.0000    0.0602    0.0000    0.0555

  MBIS Radial Moments:
   Center  Symbol  Z      [a0^2]      [a0^3]      [a0^4]
      1       N    7   12.951545   27.359839   69.127619
      2       C    6   11.312020   26.199049   72.593103

  MBIS Valence Widths: [a0]
   Center  Symbol  Z     Width
      1       N    7    0.439689
      2       C    6    0.485413

*** tstop() called on Mac.lan at Sun Aug 10 17:12:51 2025
Module time:
	user time   =       3.77 seconds =       0.06 minutes
	system time =       2.08 seconds =       0.03 minutes
	total time  =          1 seconds =       0.02 minutes
Total time:
	user time   =      19.43 seconds =       0.32 minutes
	system time =       4.13 seconds =       0.07 minutes
	total time  =          3 seconds =       0.05 minutes

    Psi4 stopped on: Sunday, 10 August 2025 05:12PM
    Psi4 wall time for execution: 0:00:02.28

*** Psi4 exiting successfully. Buy a developer a beer!
