                               Psi4 1.9.1 release

  ==> Input File <==

--------------------------------------------------------------------------
molecule {
0 2
O           0.000000           0.000000           0.000000
N           0.000000           0.000000           1.571591
}

set {
basis              cc-pvtz
reference          uks
maxiter            500
DAMPING_PERCENTAGE 1
E_CONVERGENCE      1.0E-8
D_CONVERGENCE      1.0E-8
DIIS_MAX_VECS      400
MBIS_MAXITER       8000
guess              read
}

E, wfn = energy('b3lyp', restart_file='last_wfn', return_wfn=True)
properties('b3lyp','MBIS_CHARGES', wfn=wfn)
wfn.to_file('last_wfn')
--------------------------------------------------------------------------

    Molecular point group: c2v
  Charge       = 0
  Multiplicity = 2
  Basis Set: CC-PVTZ
    Blend: CC-PVTZ
  Basis Set: (CC-PVTZ AUX)
    Blend: CC-PVTZ-JKFIT
  @DF-UKS Final Energy:  -129.80519424899421
    Total Energy =                       -129.8051942489942121
 Dipole X            :          0.0000000            0.0000000            0.0000000
 Dipole Y            :          0.0000000            0.0000000            0.0000000
 Dipole Z            :          0.2526644           -0.0059589            0.2467055
 Magnitude           :                                                    0.2467055
    Molecular point group: c2v

    Geometry (in Angstrom), charge = 0, multiplicity = 2:

       Center              X                  Y                   Z               Mass
    ------------   -----------------  -----------------  -----------------  -----------------
         O            0.000000000000     0.000000000000    -0.733619355402    15.994914619570
         N            0.000000000000     0.000000000000     0.837971644598    14.003074004430

  Charge       = 0
  Multiplicity = 2
  Basis Set: CC-PVTZ
    Blend: CC-PVTZ
  Basis Set: (CC-PVTZ AUX)
    Blend: CC-PVTZ-JKFIT

    Orbital Energies [Eh]
    ---------------------

    Alpha Occupied:

       1A1   -19.251386     2A1   -14.510303     3A1    -1.008854
       4A1    -0.770754     5A1    -0.439226     1B1    -0.433600
       1B2    -0.404455     2B1    -0.313577

    Alpha Virtual:

       2B2    -0.191071     6A1    -0.030574     7A1     0.400660
       3B1     0.415845     3B2     0.416623     8A1     0.492231
       9A1     0.581597     4B1     0.601619     4B2     0.621254
       1A2     0.943121    10A1     0.943490     5B2     0.970229
       5B1     0.973832    11A1     1.090615    12A1     1.424021
       2A2     1.472126    13A1     1.475961     6B1     1.760782
       6B2     1.765395    14A1     1.997910     7B1     2.716618
       7B2     2.718763    15A1     2.983008     8B1     3.473699
       8B2     3.497662    16A1     3.539016     3A2     3.765713
      17A1     3.766120     9B1     3.769466     9B2     3.769490
      10B1     3.896101    10B2     3.899322    18A1     4.199232
       4A2     4.280149    19A1     4.280854    11B2     4.441767
      11B1     4.442064    20A1     4.950333    12B1     5.089922
      12B2     5.091290    21A1     5.106590     5A2     5.129436
      22A1     5.133006    13B1     5.456223    13B2     5.462262
      23A1     5.957869     6A2     6.158437    24A1     6.168231
      14B1     6.436823    14B2     6.457857    25A1     7.214428
      26A1     7.978847

    Beta Occupied:

       1A1   -19.267952     2A1   -14.474495     3A1    -1.029139
       4A1    -0.695768     1B2    -0.440362     5A1    -0.430261
       1B1    -0.378938

    Beta Virtual:

       2B2    -0.156135     2B1    -0.136531     6A1    -0.010881
       7A1     0.412718     3B2     0.460133     3B1     0.472330
       8A1     0.516466     4B2     0.582254     9A1     0.587147
       4B1     0.609566     5B2     0.990637     5B1     1.006931
       1A2     1.012488    10A1     1.012552    11A1     1.080391
      12A1     1.438996     2A2     1.448220    13A1     1.458265
       6B2     1.746975     6B1     1.775964    14A1     1.995021
       7B2     2.803739     7B1     2.818145    15A1     2.998776
       8B2     3.440909     8B1     3.488704    16A1     3.569240
       3A2     3.836467    17A1     3.836556     9B2     3.873499
       9B1     3.873594    10B2     3.913328    10B1     3.938762
      18A1     4.216478     4A2     4.419749    19A1     4.419775
      11B2     4.510703    11B1     4.526102    20A1     4.968051
      12B2     5.049889    12B1     5.050002     5A2     5.102573
      21A1     5.104286    22A1     5.168345    13B2     5.421241
      13B1     5.460977    23A1     5.941716     6A2     6.107162
      24A1     6.108619    14B2     6.387945    14B1     6.438344
      25A1     7.205567    26A1     7.952323

    Final Occupation by Irrep:
             A1    A2    B1    B2
    DOCC [     5,    0,    1,    1 ]
    SOCC [     0,    0,    1,    0 ]
    NA   [     5,    0,    2,    1 ]
    NB   [     5,    0,    1,    1 ]

  @DF-UKS Final Energy:  -129.80519424642301

   => Energetics <=

    Nuclear Repulsion Energy =             18.8560024825288544
    One-Electron Energy =                -214.6514108185156715
    Two-Electron Energy =                  78.2518830907079632
    DFT Exchange-Correlation Energy =     -12.2616690011441651
    Empirical Dispersion Energy =           0.0000000000000000
    VV10 Nonlocal Energy =                  0.0000000000000000
    Total Energy =                       -129.8051942464230137

  UHF NO Occupations:
  HONO-2 :    5 A1 1.9937505
  HONO-1 :    1 B2 1.6903613
  HONO-0 :    2 B1 1.0000000
  LUNO+0 :    2 B2 0.3096387
  LUNO+1 :    6 A1 0.0062495
  LUNO+2 :    7 A1 0.0007149
  LUNO+3 :    3 B1 0.0005453

Computation Completed

Properties will be evaluated at   0.000000,   0.000000,   0.000000 [a0]

Properties computed using the B3LYP density matrix

 Multipole Moments:

 ------------------------------------------------------------------------------------
     Multipole            Electronic (a.u.)      Nuclear  (a.u.)        Total (a.u.)
 ------------------------------------------------------------------------------------

 L = 1.  Multiply by 2.5417464519 to convert [e a0] to [Debye]
 Dipole X            :          0.0000000            0.0000000            0.0000000
 Dipole Y            :          0.0000000            0.0000000            0.0000000
 Dipole Z            :          0.2526652           -0.0059589            0.2467063
 Magnitude           :                                                    0.2467063

 L = 2.  Multiply by 1.3450342976 to convert [e a0^2] to [Debye ang]
 Quadrupole XX       :         -8.2689462            0.0000000           -8.2689462
 Quadrupole XY       :          0.0000000            0.0000000            0.0000000
 Quadrupole XZ       :          0.0000000            0.0000000            0.0000000
 Quadrupole YY       :         -7.4906600            0.0000000           -7.4906600
 Quadrupole YZ       :          0.0000000            0.0000000            0.0000000
 Quadrupole ZZ       :        -40.9507961           32.9286253           -8.0221708
 Traceless XX        :         10.6345212          -10.9762084           -0.3416872
 Traceless YY        :         11.4128074          -10.9762084            0.4365990
 Traceless ZZ        :        -22.0473286           21.9524168           -0.0949118

 ------------------------------------------------------------------------------------
  ==> Computing MBIS Charges <==

  Electron Count from Grid (Expected Number): 15.00000 (15.00000)
  Difference: -0.00000

  MBIS Charges: (a.u.)
   Center  Symbol  Z      Pop.       Charge
      1       O    8    8.117764   -0.117764
      2       N    7    6.882235    0.117765

  MBIS Dipoles: [e a0]
   Center  Symbol  Z        X           Y           Z
      1       O    8   -0.000000   -0.000000   -0.020939
      2       N    7    0.000000    0.000000   -0.082102

  MBIS Quadrupoles: [e a0^2]
   Center  Symbol  Z      XX        XY        XZ        YY        YZ        ZZ
      1       O    8   -4.1986   -0.0000    0.0000   -3.6729    0.0000   -3.8714
      2       N    7   -4.0703   -0.0000    0.0000   -3.8178   -0.0000   -4.0178

  MBIS Octupoles: [e a0^3]
   Center  Symbol  Z      XXX       XXY       XXZ       XYY       XYZ       XZZ       YYY       YYZ       YZZ       ZZZ
      1       O    8   -0.0000   -0.0000    0.0274   -0.0000   -0.0000   -0.0000    0.0000   -0.0719    0.0000   -0.2901
      2       N    7    0.0000   -0.0000    0.0025   -0.0000    0.0000    0.0000   -0.0000    0.0152   -0.0000    0.2547

  MBIS Radial Moments:
   Center  Symbol  Z      [a0^2]      [a0^3]      [a0^4]
      1       O    8   11.742906   22.314452   50.759658
      2       N    7   11.905875   25.014982   62.694623

  MBIS Valence Widths: [a0]
   Center  Symbol  Z     Width
      1       O    8    0.390181
      2       N    7    0.438655

*** tstop() called on Mac.lan at Sun Aug 10 17:21:28 2025
Module time:
	user time   =       4.18 seconds =       0.07 minutes
	system time =       1.70 seconds =       0.03 minutes
	total time  =          1 seconds =       0.02 minutes
Total time:
	user time   =      20.13 seconds =       0.34 minutes
	system time =       3.89 seconds =       0.06 minutes
	total time  =          3 seconds =       0.05 minutes

    Psi4 stopped on: Sunday, 10 August 2025 05:21PM
    Psi4 wall time for execution: 0:00:02.32

*** Psi4 exiting successfully. Buy a developer a beer!
