                               Psi4 1.9.1 release

  ==> Input File <==

--------------------------------------------------------------------------
molecule {
0 2
C           0.000000           0.000000           0.000000
H           0.000000           0.000000           0.839335
}

set {
basis              cc-pvtz
reference          uks
maxiter            500
DAMPING_PERCENTAGE 1
E_CONVERGENCE      1.0E-8
D_CONVERGENCE      1.0E-8
DIIS_MAX_VECS      400
MBIS_MAXITER       8000
guess              read
}

E, wfn = energy('b3lyp', restart_file='last_wfn', return_wfn=True)
properties('b3lyp','MBIS_CHARGES', wfn=wfn)
wfn.to_file('last_wfn')
--------------------------------------------------------------------------

    Molecular point group: c2v
  Charge       = 0
  Multiplicity = 2
  Basis Set: CC-PVTZ
    Blend: CC-PVTZ
  Basis Set: (CC-PVTZ AUX)
    Blend: CC-PVTZ-JKFIT
  @DF-UKS Final Energy:   -38.42158299741530
    Total Energy =                        -38.4215829974153067
 Dipole X            :          0.0000000            0.0000000            0.0000000
 Dipole Y            :          0.0000000            0.0000000            0.0000000
 Dipole Z            :          0.0207119            0.7258870            0.7465990
 Magnitude           :                                                    0.7465990
    Molecular point group: c2v

    Geometry (in Angstrom), charge = 0, multiplicity = 2:

       Center              X                  Y                   Z               Mass
    ------------   -----------------  -----------------  -----------------  -----------------
         C            0.000000000000     0.000000000000    -0.065030304554    12.000000000000
         H            0.000000000000     0.000000000000     0.774304695446     1.007825032230

  Charge       = 0
  Multiplicity = 2
  Basis Set: CC-PVTZ
    Blend: CC-PVTZ
  Basis Set: (CC-PVTZ AUX)
    Blend: CC-PVTZ-JKFIT

    Orbital Energies [Eh]
    ---------------------

    Alpha Occupied:

       1A1   -10.248645     2A1    -0.730459     3A1    -0.324366
       1B1    -0.259911

    Alpha Virtual:

       1B2    -0.148548     4A1     0.074294     5A1     0.286261
       2B1     0.291868     2B2     0.310921     6A1     0.369076
       7A1     0.572044     3B1     0.610685     3B2     0.615457
       1A2     0.654355     8A1     0.660313     9A1     1.001450
       4B1     1.081635     4B2     1.081820    10A1     1.815074
      11A1     1.898469     5B1     1.932428     5B2     1.956957
      12A1     2.178252     2A2     2.557861    13A1     2.561687
       6B1     2.643170     6B2     2.645376     7B1     2.698612
       7B2     2.707005     3A2     2.892651    14A1     2.902994
       8B1     3.023346     8B2     3.025523    15A1     3.028352
      16A1     3.723986     4A2     3.884548    17A1     3.887465
       9B2     3.976195     9B1     3.977835    10B1     5.421340
      10B2     5.424404    18A1     5.428013    19A1     5.695578
      20A1    12.000159

    Beta Occupied:

       1A1   -10.234232     2A1    -0.691646     3A1    -0.299521

    Beta Virtual:

       1B2    -0.132413     1B1    -0.086740     4A1     0.077072
       5A1     0.292856     2B2     0.318133     2B1     0.345798
       6A1     0.384017     7A1     0.585548     3B2     0.618218
       3B1     0.645434     1A2     0.697866     8A1     0.698112
       9A1     1.012358     4B2     1.082987     4B1     1.101590
      10A1     1.834067    11A1     1.910440     5B2     1.968889
       5B1     2.012340    12A1     2.203962     2A2     2.591477
      13A1     2.591945     6B2     2.699835     6B1     2.700955
       7B2     2.711626     7B1     2.747823    14A1     2.959660
       3A2     2.964339     8B2     3.028972    15A1     3.051776
       8B1     3.062133    16A1     3.735207     4A2     3.905240
      17A1     3.906388     9B2     3.975589     9B1     3.993917
      10B2     5.426600    18A1     5.439532    10B1     5.455890
      19A1     5.702815    20A1    12.014984

    Final Occupation by Irrep:
             A1    A2    B1    B2
    DOCC [     3,    0,    0,    0 ]
    SOCC [     0,    0,    1,    0 ]
    NA   [     3,    0,    1,    0 ]
    NB   [     3,    0,    0,    0 ]

  @DF-UKS Final Energy:   -38.42158299977531

   => Energetics <=

    Nuclear Repulsion Energy =              3.7828319610405852
    One-Electron Energy =                 -58.2651820133689995
    Two-Electron Energy =                  20.7089974590229602
    DFT Exchange-Correlation Energy =      -4.6482304064698594
    Empirical Dispersion Energy =           0.0000000000000000
    VV10 Nonlocal Energy =                  0.0000000000000000
    Total Energy =                        -38.4215829997753104

  UHF NO Occupations:
  HONO-2 :    2 A1 1.9999020
  HONO-1 :    3 A1 1.9987848
  HONO-0 :    1 B1 1.0000000
  LUNO+0 :    4 A1 0.0012152
  LUNO+1 :    5 A1 0.0000980
  LUNO+2 :    6 A1 0.0000007
  LUNO+3 :    7 A1 0.0000000

Computation Completed

Properties will be evaluated at   0.000000,   0.000000,   0.000000 [a0]

Properties computed using the B3LYP density matrix

 Multipole Moments:

 ------------------------------------------------------------------------------------
     Multipole            Electronic (a.u.)      Nuclear  (a.u.)        Total (a.u.)
 ------------------------------------------------------------------------------------

 L = 1.  Multiply by 2.5417464519 to convert [e a0] to [Debye]
 Dipole X            :          0.0000000            0.0000000            0.0000000
 Dipole Y            :          0.0000000            0.0000000            0.0000000
 Dipole Z            :          0.0207119            0.7258870            0.7465990
 Magnitude           :                                                    0.7465990

 L = 2.  Multiply by 1.3450342976 to convert [e a0^2] to [Debye ang]
 Quadrupole XX       :         -5.4913624            0.0000000           -5.4913624
 Quadrupole XY       :          0.0000000            0.0000000            0.0000000
 Quadrupole XZ       :          0.0000000            0.0000000            0.0000000
 Quadrupole YY       :         -3.9962415            0.0000000           -3.9962415
 Quadrupole YZ       :          0.0000000            0.0000000            0.0000000
 Quadrupole ZZ       :         -7.6695446            2.2316348           -5.4379098
 Traceless XX        :          0.2276871           -0.7438783           -0.5161912
 Traceless YY        :          1.7228080           -0.7438783            0.9789297
 Traceless ZZ        :         -1.9504951            1.4877566           -0.4627386

 ------------------------------------------------------------------------------------
  ==> Computing MBIS Charges <==

  Electron Count from Grid (Expected Number):  7.00000 ( 7.00000)
  Difference: -0.00000

  MBIS Charges: (a.u.)
   Center  Symbol  Z      Pop.       Charge
      1       C    6    6.144427   -0.144427
      2       H    1    0.855573    0.144427

  MBIS Dipoles: [e a0]
   Center  Symbol  Z        X           Y           Z
      1       C    6    0.000000    0.000000    0.483669
      2       H    1   -0.000000    0.000000    0.033852

  MBIS Quadrupoles: [e a0^2]
   Center  Symbol  Z      XX        XY        XZ        YY        YZ        ZZ
      1       C    6   -5.1494    0.0000   -0.0000   -3.7038   -0.0000   -5.3992
      2       H    1   -0.3419   -0.0000    0.0000   -0.2924   -0.0000   -0.3259

  MBIS Octupoles: [e a0^3]
   Center  Symbol  Z      XXX       XXY       XXZ       XYY       XYZ       XZZ       YYY       YYZ       YZZ       ZZZ
      1       C    6   -0.0000    0.0000    0.7705    0.0000   -0.0000    0.0000    0.0000    0.8733    0.0000    1.8478
      2       H    1   -0.0000    0.0000    0.0096    0.0000    0.0000   -0.0000    0.0000   -0.0055    0.0000    0.0024

  MBIS Radial Moments:
   Center  Symbol  Z      [a0^2]      [a0^3]      [a0^4]
      1       C    6   14.252480   35.342438   104.215095
      2       H    1    0.960266    1.437448    2.583705

  MBIS Valence Widths: [a0]
   Center  Symbol  Z     Width
      1       C    6    0.519145
      2       H    1    0.309848

*** tstop() called on Mac.lan at Sun Aug 10 17:08:46 2025
Module time:
	user time   =       2.45 seconds =       0.04 minutes
	system time =       2.06 seconds =       0.03 minutes
	total time  =          0 seconds =       0.00 minutes
Total time:
	user time   =       9.56 seconds =       0.16 minutes
	system time =       4.16 seconds =       0.07 minutes
	total time  =          1 seconds =       0.02 minutes

    Psi4 stopped on: Sunday, 10 August 2025 05:08PM
    Psi4 wall time for execution: 0:00:01.35

*** Psi4 exiting successfully. Buy a developer a beer!
