                               Psi4 1.9.1 release

  ==> Input File <==

--------------------------------------------------------------------------
molecule {
0 3
C           0.000000           0.000000           0.000000
C           0.000000           0.000000           1.617962
}

set {
basis              cc-pvtz
reference          uks
maxiter            500
DAMPING_PERCENTAGE 1
E_CONVERGENCE      1.0E-8
D_CONVERGENCE      1.0E-8
DIIS_MAX_VECS      400
MBIS_MAXITER       8000
guess              read
}

E, wfn = energy('b3lyp', restart_file='last_wfn', return_wfn=True)
properties('b3lyp','MBIS_CHARGES', wfn=wfn)
wfn.to_file('last_wfn')
--------------------------------------------------------------------------

    Molecular point group: d2h
  Charge       = 0
  Multiplicity = 3
  Basis Set: CC-PVTZ
    Blend: CC-PVTZ
  Basis Set: (CC-PVTZ AUX)
    Blend: CC-PVTZ-JKFIT
  @DF-UKS Final Energy:   -75.88055978847990
    Total Energy =                        -75.8805597884798999
 Dipole X            :          0.0000000            0.0000000            0.0000000
 Dipole Y            :          0.0000000            0.0000000            0.0000000
 Dipole Z            :          0.0000000           -0.0000000           -0.0000000
 Magnitude           :                                                    0.0000000
    Molecular point group: d2h

    Geometry (in Angstrom), charge = 0, multiplicity = 3:

       Center              X                  Y                   Z               Mass
    ------------   -----------------  -----------------  -----------------  -----------------
         C            0.000000000000     0.000000000000    -0.808981000000    12.000000000000
         C            0.000000000000     0.000000000000     0.808981000000    12.000000000000

  Charge       = 0
  Multiplicity = 3
  Basis Set: CC-PVTZ
    Blend: CC-PVTZ
  Basis Set: (CC-PVTZ AUX)
    Blend: CC-PVTZ-JKFIT

    Orbital Energies [Eh]
    ---------------------

    Alpha Occupied:

       1Ag   -10.334605     1B1u  -10.334362     2Ag    -0.738518
       2B1u   -0.500135     3Ag    -0.351299     1B3u   -0.324866
       1B2u   -0.294861

    Alpha Virtual:

       1B2g   -0.119528     1B3g   -0.092031     3B1u    0.111434
       2B3u    0.272199     4B1u    0.274778     4Ag     0.283369
       2B2u    0.287006     5Ag     0.326119     2B2g    0.340296
       2B3g    0.352928     1B1g    0.562056     6Ag     0.562571
       3B3u    0.613434     5B1u    0.615683     3B2u    0.635874
       1Au     0.781169     6B1u    0.781513     3B2g    1.056783
       7Ag     1.067908     3B3g    1.073767     7B1u    1.087475
       4B3u    1.854501     4B2u    1.877166     8Ag     1.946477
       4B2g    2.001782     4B3g    2.027163     5B3u    2.367676
       9Ag     2.382996     2B1g    2.383427     5B2u    2.392583
      10Ag     2.463895     8B1u    2.502280     6B3u    2.566834
       6B2u    2.566951     5B2g    2.711191     5B3g    2.711280
       3B1g    2.872384    11Ag     2.872538     9B1u    2.908698
       2Au     2.910844    10B1u    2.922495     6B2g    3.021651
       6B3g    3.044164     3Au     3.093872    11B1u    3.094794
       7B3u    3.098004     7B2u    3.121915    12B1u    3.427439
      12Ag     3.630943     7B2g    3.788834     7B3g    3.812306
      13Ag     3.890276    13B1u    6.645676

    Beta Occupied:

       1Ag   -10.319340     1B1u  -10.319239     2Ag    -0.675553
       2B1u   -0.417983     1B2u   -0.278586

    Beta Virtual:

       3Ag    -0.202405     1B3u   -0.190724     1B3g   -0.072652
       1B2g   -0.041323     3B1u    0.143852     2B2u    0.292768
       2B3u    0.303406     4Ag     0.310838     4B1u    0.331890
       5Ag     0.355293     2B3g    0.358587     2B2g    0.367376
       1B1g    0.587249     6Ag     0.589490     5B1u    0.635353
       3B2u    0.663345     3B3u    0.671173     1Au     0.804111
       6B1u    0.806095     3B3g    1.096734     3B2g    1.100247
       7Ag     1.110915     7B1u    1.126952     4B2u    1.891435
       4B3u    1.904898     8Ag     1.997804     4B3g    2.037842
       4B2g    2.049345     5B2u    2.420790     2B1g    2.425625
       9Ag     2.427846     5B3u    2.430862    10Ag     2.522242
       8B1u    2.546727     6B2u    2.597647     6B3u    2.598415
       5B3g    2.741566     5B2g    2.742337     3B1g    2.911183
      11Ag     2.915653     2Au     2.943973     9B1u    2.947656
      10B1u    2.983460     6B3g    3.085528     6B2g    3.100056
       3Au     3.138952    11B1u    3.141656     7B2u    3.166185
       7B3u    3.178076    12B1u    3.483308    12Ag     3.687335
       7B3g    3.845784     7B2g    3.852688    13Ag     3.927839
      13B1u    6.677950

    Final Occupation by Irrep:
             Ag   B1g   B2g   B3g    Au   B1u   B2u   B3u
    DOCC [     2,    0,    0,    0,    0,    2,    1,    0 ]
    SOCC [     1,    0,    0,    0,    0,    0,    0,    1 ]
    NA   [     3,    0,    0,    0,    0,    2,    1,    1 ]
    NB   [     2,    0,    0,    0,    0,    2,    1,    0 ]

  @DF-UKS Final Energy:   -75.88055978847446

   => Energetics <=

    Nuclear Repulsion Energy =             11.7743059380381041
    One-Electron Energy =                -124.3381997649402706
    Two-Electron Energy =                  45.1114451439411894
    DFT Exchange-Correlation Energy =      -8.4281111055134801
    Empirical Dispersion Energy =           0.0000000000000000
    VV10 Nonlocal Energy =                  0.0000000000000000
    Total Energy =                        -75.8805597884744572

  UHF NO Occupations:
  HONO-2 :    2B1u 1.9978512
  HONO-1 :    3 Ag 1.0000000
  HONO-0 :    1B3u 1.0000000
  LUNO+0 :    3B1u 0.0021488
  LUNO+1 :    4 Ag 0.0004220
  LUNO+2 :    2B2u 0.0001765
  LUNO+3 :    4B1u 0.0000006

Computation Completed

Properties will be evaluated at   0.000000,   0.000000,   0.000000 [a0]

Properties computed using the B3LYP density matrix

 Multipole Moments:

 ------------------------------------------------------------------------------------
     Multipole            Electronic (a.u.)      Nuclear  (a.u.)        Total (a.u.)
 ------------------------------------------------------------------------------------

 L = 1.  Multiply by 2.5417464519 to convert [e a0] to [Debye]
 Dipole X            :          0.0000000            0.0000000            0.0000000
 Dipole Y            :          0.0000000            0.0000000            0.0000000
 Dipole Z            :          0.0000000           -0.0000000           -0.0000000
 Magnitude           :                                                    0.0000000

 L = 2.  Multiply by 1.3450342976 to convert [e a0^2] to [Debye ang]
 Quadrupole XX       :         -8.4166383            0.0000000           -8.4166383
 Quadrupole XY       :          0.0000000            0.0000000            0.0000000
 Quadrupole XZ       :          0.0000000            0.0000000            0.0000000
 Quadrupole YY       :        -10.0380784            0.0000000          -10.0380784
 Quadrupole YZ       :          0.0000000            0.0000000            0.0000000
 Quadrupole ZZ       :        -36.7851582           28.0450116           -8.7401466
 Traceless XX        :          9.9966533           -9.3483372            0.6483161
 Traceless YY        :          8.3752133           -9.3483372           -0.9731239
 Traceless ZZ        :        -18.3718666           18.6966744            0.3248078

 ------------------------------------------------------------------------------------
  ==> Computing MBIS Charges <==

  Electron Count from Grid (Expected Number): 12.00000 (12.00000)
  Difference:  0.00000

  MBIS Charges: (a.u.)
   Center  Symbol  Z      Pop.       Charge
      1       C    6    6.000000   -0.000000
      2       C    6    6.000000   -0.000000

  MBIS Dipoles: [e a0]
   Center  Symbol  Z        X           Y           Z
      1       C    6   -0.000000    0.000000   -0.134828
      2       C    6   -0.000000    0.000000    0.134828

  MBIS Quadrupoles: [e a0^2]
   Center  Symbol  Z      XX        XY        XZ        YY        YZ        ZZ
      1       C    6   -4.2083    0.0000   -0.0000   -5.0190   -0.0000   -4.7823
      2       C    6   -4.2083    0.0000    0.0000   -5.0190    0.0000   -4.7823

  MBIS Octupoles: [e a0^3]
   Center  Symbol  Z      XXX       XXY       XXZ       XYY       XYZ       XZZ       YYY       YYZ       YZZ       ZZZ
      1       C    6   -0.0000    0.0000   -0.1981   -0.0000   -0.0000   -0.0000    0.0000   -0.4578    0.0000   -0.8400
      2       C    6   -0.0000    0.0000    0.1981   -0.0000    0.0000   -0.0000    0.0000    0.4578    0.0000    0.8400

  MBIS Radial Moments:
   Center  Symbol  Z      [a0^2]      [a0^3]      [a0^4]
      1       C    6   14.009669   34.803614   102.940357
      2       C    6   14.009669   34.803614   102.940357

  MBIS Valence Widths: [a0]
   Center  Symbol  Z     Width
      1       C    6    0.524945
      2       C    6    0.524945

*** tstop() called on Mac.lan at Sun Aug 10 17:04:33 2025
Module time:
	user time   =       3.33 seconds =       0.06 minutes
	system time =       2.19 seconds =       0.04 minutes
	total time  =          0 seconds =       0.00 minutes
Total time:
	user time   =      19.90 seconds =       0.33 minutes
	system time =       4.51 seconds =       0.08 minutes
	total time  =          2 seconds =       0.03 minutes

    Psi4 stopped on: Sunday, 10 August 2025 05:04PM
    Psi4 wall time for execution: 0:00:02.39

*** Psi4 exiting successfully. Buy a developer a beer!
