                               Psi4 1.9.1 release

  ==> Input File <==

--------------------------------------------------------------------------
molecule {
0 2
C           0.000000           0.000000           0.000000
H           0.000000           0.000000           1.045729
}

set {
basis              cc-pvtz
reference          uks
maxiter            500
DAMPING_PERCENTAGE 1
E_CONVERGENCE      1.0E-8
D_CONVERGENCE      1.0E-8
DIIS_MAX_VECS      400
MBIS_MAXITER       8000
guess              read
}

E, wfn = energy('b3lyp', restart_file='last_wfn', return_wfn=True)
properties('b3lyp','MBIS_CHARGES', wfn=wfn)
wfn.to_file('last_wfn')
--------------------------------------------------------------------------

    Molecular point group: c2v
  Charge       = 0
  Multiplicity = 2
  Basis Set: CC-PVTZ
    Blend: CC-PVTZ
  Basis Set: (CC-PVTZ AUX)
    Blend: CC-PVTZ-JKFIT
  @DF-UKS Final Energy:   -38.49270563399769
    Total Energy =                        -38.4927056339976943
 Dipole X            :          0.0000000            0.0000000            0.0000000
 Dipole Y            :          0.0000000            0.0000000            0.0000000
 Dipole Z            :         -0.2695122            0.9043840            0.6348717
 Magnitude           :                                                    0.6348717
    Molecular point group: c2v

    Geometry (in Angstrom), charge = 0, multiplicity = 2:

       Center              X                  Y                   Z               Mass
    ------------   -----------------  -----------------  -----------------  -----------------
         C            0.000000000000     0.000000000000    -0.081021374482    12.000000000000
         H            0.000000000000     0.000000000000     0.964707625518     1.007825032230

  Charge       = 0
  Multiplicity = 2
  Basis Set: CC-PVTZ
    Blend: CC-PVTZ
  Basis Set: (CC-PVTZ AUX)
    Blend: CC-PVTZ-JKFIT

    Orbital Energies [Eh]
    ---------------------

    Alpha Occupied:

       1A1   -10.272183     2A1    -0.669142     3A1    -0.324333
       1B1    -0.258983

    Alpha Virtual:

       1B2    -0.147406     4A1     0.065538     5A1     0.284669
       2B1     0.292329     2B2     0.311876     6A1     0.352405
       7A1     0.465566     3B1     0.578467     3B2     0.582241
       1A2     0.654999     8A1     0.660771     9A1     0.965568
       4B1     1.044427     4B2     1.044646    10A1     1.481832
       5B1     1.937375     5B2     1.963225    11A1     1.996338
      12A1     2.166933     2A2     2.521805    13A1     2.525437
       6B1     2.634503     6B2     2.640964     7B1     2.642471
       7B2     2.645701     3A2     2.903192    14A1     2.911668
      15A1     2.949209     8B1     3.050915     8B2     3.056849
      16A1     3.352744     4A2     3.630194    17A1     3.632219
       9B2     3.833302     9B1     3.835730    18A1     4.698518
      10B1     4.861386    10B2     4.863297    19A1     4.934552
      20A1     8.876404

    Beta Occupied:

       1A1   -10.257603     2A1    -0.628146     3A1    -0.302578

    Beta Virtual:

       1B2    -0.131355     1B1    -0.085626     4A1     0.069766
       5A1     0.291691     2B2     0.319274     2B1     0.347576
       6A1     0.365661     7A1     0.478944     3B2     0.584134
       3B1     0.608349     8A1     0.698337     1A2     0.698526
       9A1     0.977953     4B2     1.046072     4B1     1.065496
      10A1     1.495922     5B2     1.975025    11A1     2.005663
       5B1     2.019112    12A1     2.186143     2A2     2.552293
      13A1     2.552697     6B2     2.644662     6B1     2.677888
       7B2     2.700924     7B1     2.702273    14A1     2.950417
       3A2     2.979403    15A1     2.995839     8B2     3.060837
       8B1     3.097978    16A1     3.365660     4A2     3.644149
      17A1     3.644701     9B2     3.830401     9B1     3.841932
      18A1     4.706420    10B2     4.864728    10B1     4.890040
      19A1     4.941578    20A1     8.892397

    Final Occupation by Irrep:
             A1    A2    B1    B2
    DOCC [     3,    0,    0,    0 ]
    SOCC [     0,    0,    1,    0 ]
    NA   [     3,    0,    1,    0 ]
    NB   [     3,    0,    0,    0 ]

  @DF-UKS Final Energy:   -38.49270563362072

   => Energetics <=

    Nuclear Repulsion Energy =              3.0362199614049152
    One-Electron Energy =                 -57.0444611825237473
    Two-Electron Energy =                  20.0868353247897495
    DFT Exchange-Correlation Energy =      -4.5712997372916417
    Empirical Dispersion Energy =           0.0000000000000000
    VV10 Nonlocal Energy =                  0.0000000000000000
    Total Energy =                        -38.4927056336207158

  UHF NO Occupations:
  HONO-2 :    2 A1 1.9998648
  HONO-1 :    3 A1 1.9987047
  HONO-0 :    1 B1 1.0000000
  LUNO+0 :    4 A1 0.0012953
  LUNO+1 :    5 A1 0.0001352
  LUNO+2 :    6 A1 0.0000007
  LUNO+3 :    7 A1 0.0000000

Computation Completed

Properties will be evaluated at   0.000000,   0.000000,   0.000000 [a0]

Properties computed using the B3LYP density matrix

 Multipole Moments:

 ------------------------------------------------------------------------------------
     Multipole            Electronic (a.u.)      Nuclear  (a.u.)        Total (a.u.)
 ------------------------------------------------------------------------------------

 L = 1.  Multiply by 2.5417464519 to convert [e a0] to [Debye]
 Dipole X            :          0.0000000            0.0000000            0.0000000
 Dipole Y            :          0.0000000            0.0000000            0.0000000
 Dipole Z            :         -0.2695122            0.9043840            0.6348717
 Magnitude           :                                                    0.6348717

 L = 2.  Multiply by 1.3450342976 to convert [e a0^2] to [Debye ang]
 Quadrupole XX       :         -5.6483579            0.0000000           -5.6483579
 Quadrupole XY       :          0.0000000            0.0000000            0.0000000
 Quadrupole XZ       :          0.0000000            0.0000000            0.0000000
 Quadrupole YY       :         -4.1483963            0.0000000           -4.1483963
 Quadrupole YZ       :          0.0000000            0.0000000            0.0000000
 Quadrupole ZZ       :         -8.9858268            3.4641028           -5.5217240
 Traceless XX        :          0.6125024           -1.1547009           -0.5421985
 Traceless YY        :          2.1124641           -1.1547009            0.9577631
 Traceless ZZ        :         -2.7249665            2.3094019           -0.4155646

 ------------------------------------------------------------------------------------
  ==> Computing MBIS Charges <==

  Electron Count from Grid (Expected Number):  7.00000 ( 7.00000)
  Difference: -0.00000

  MBIS Charges: (a.u.)
   Center  Symbol  Z      Pop.       Charge
      1       C    6    6.109751   -0.109751
      2       H    1    0.890249    0.109751

  MBIS Dipoles: [e a0]
   Center  Symbol  Z        X           Y           Z
      1       C    6    0.000000    0.000000    0.373926
      2       H    1    0.000000    0.000000    0.044063

  MBIS Quadrupoles: [e a0^2]
   Center  Symbol  Z      XX        XY        XZ        YY        YZ        ZZ
      1       C    6   -5.1578   -0.0000   -0.0000   -3.7228   -0.0000   -5.4465
      2       H    1   -0.4906    0.0000   -0.0000   -0.4256   -0.0000   -0.4836

  MBIS Octupoles: [e a0^3]
   Center  Symbol  Z      XXX       XXY       XXZ       XYY       XYZ       XZZ       YYY       YYZ       YZZ       ZZZ
      1       C    6    0.0000    0.0000    0.5351    0.0000   -0.0000    0.0000   -0.0000    0.5854    0.0000    1.0565
      2       H    1    0.0000    0.0000    0.0053    0.0000   -0.0000   -0.0000   -0.0000   -0.0246   -0.0000   -0.0210

  MBIS Radial Moments:
   Center  Symbol  Z      [a0^2]      [a0^3]      [a0^4]
      1       C    6   14.327048   35.792756   106.807802
      2       H    1    1.399764    2.507486    5.413414

  MBIS Valence Widths: [a0]
   Center  Symbol  Z     Width
      1       C    6    0.522884
      2       H    1    0.365067

*** tstop() called on Mac.lan at Sun Aug 10 17:08:27 2025
Module time:
	user time   =       3.74 seconds =       0.06 minutes
	system time =       1.92 seconds =       0.03 minutes
	total time  =          1 seconds =       0.02 minutes
Total time:
	user time   =      12.33 seconds =       0.21 minutes
	system time =       4.21 seconds =       0.07 minutes
	total time  =          2 seconds =       0.03 minutes

    Psi4 stopped on: Sunday, 10 August 2025 05:08PM
    Psi4 wall time for execution: 0:00:01.62

*** Psi4 exiting successfully. Buy a developer a beer!
