                               Psi4 1.9.1 release

  ==> Input File <==

--------------------------------------------------------------------------
molecule {
0 2
O           0.000000           0.000000           0.000000
H           0.000000           0.000000           0.763772
}

set {
basis              cc-pvtz
reference          uks
maxiter            500
DAMPING_PERCENTAGE 1
E_CONVERGENCE      1.0E-8
D_CONVERGENCE      1.0E-8
DIIS_MAX_VECS      400
MBIS_MAXITER       8000
guess              read
}

E, wfn = energy('b3lyp', restart_file='last_wfn', return_wfn=True)
properties('b3lyp','MBIS_CHARGES', wfn=wfn)
wfn.to_file('last_wfn')
--------------------------------------------------------------------------

    Molecular point group: c2v
  Charge       = 0
  Multiplicity = 2
  Basis Set: CC-PVTZ
    Blend: CC-PVTZ
  Basis Set: (CC-PVTZ AUX)
    Blend: CC-PVTZ-JKFIT
  @DF-UKS Final Energy:   -75.69784077322340
    Total Energy =                        -75.6978407732234047
 Dipole X            :          0.0000000            0.0000000            0.0000000
 Dipole Y            :          0.0000000            0.0000000            0.0000000
 Dipole Z            :         -0.0527276            0.6733543            0.6206267
 Magnitude           :                                                    0.6206267
    Molecular point group: c2v

    Geometry (in Angstrom), charge = 0, multiplicity = 2:

       Center              X                  Y                   Z               Mass
    ------------   -----------------  -----------------  -----------------  -----------------
         O            0.000000000000     0.000000000000    -0.045272030054    15.994914619570
         H            0.000000000000     0.000000000000     0.718499969946     1.007825032230

  Charge       = 0
  Multiplicity = 2
  Basis Set: CC-PVTZ
    Blend: CC-PVTZ
  Basis Set: (CC-PVTZ AUX)
    Blend: CC-PVTZ-JKFIT

    Orbital Energies [Eh]
    ---------------------

    Alpha Occupied:

       1A1   -19.179795     2A1    -1.095664     3A1    -0.508882
       1B1    -0.429175     1B2    -0.356227

    Alpha Virtual:

       4A1     0.056713     5A1     0.476634     6A1     0.524660
       2B1     0.524780     2B2     0.559267     3B1     0.723936
       3B2     0.743583     7A1     0.816620     8A1     1.411273
       1A2     1.412393     9A1     1.535215     4B1     1.801300
       4B2     1.839190    10A1     1.861340    11A1     2.607392
       2A2     3.280545    12A1     3.280690     5B1     3.379394
       5B2     3.408889     6B1     3.595239     6B2     3.645799
      13A1     3.878743     7B1     4.252370     7B2     4.282730
      14A1     4.514357     8B1     5.057638     8B2     5.057907
      15A1     5.341167     3A2     5.644630    16A1     5.645829
       4A2     6.119151    17A1     6.119995     9B1     6.233899
       9B2     6.288370    18A1     7.069403    19A1     7.408823
      10B1     7.485236    10B2     7.531705    20A1    12.485943

    Beta Occupied:

       1A1   -19.154866     2A1    -1.030143     3A1    -0.478595
       1B2    -0.330755

    Beta Virtual:

       1B1    -0.181803     4A1     0.061607     5A1     0.483650
       6A1     0.533538     2B2     0.569168     2B1     0.593477
       3B2     0.744678     3B1     0.747645     7A1     0.840291
       1A2     1.464972     8A1     1.470397     9A1     1.552479
       4B2     1.844951     4B1     1.849328    10A1     1.880997
      11A1     2.616474     2A2     3.294388    12A1     3.295428
       5B2     3.411623     5B1     3.418631     6B2     3.661449
       6B1     3.686206    13A1     3.887760     7B2     4.285649
       7B1     4.286312    14A1     4.545900     8B2     5.127935
       8B1     5.130880    15A1     5.376424     3A2     5.688668
      16A1     5.693479     4A2     6.210533    17A1     6.224940
       9B2     6.298545     9B1     6.310418    18A1     7.092458
      19A1     7.427782    10B2     7.539996    10B1     7.548666
      20A1    12.515602

    Final Occupation by Irrep:
             A1    A2    B1    B2
    DOCC [     3,    0,    0,    1 ]
    SOCC [     0,    0,    1,    0 ]
    NA   [     3,    0,    1,    1 ]
    NB   [     3,    0,    0,    1 ]

  @DF-UKS Final Energy:   -75.69784077344406

   => Energetics <=

    Nuclear Repulsion Energy =              5.5427767519102558
    One-Electron Energy =                -114.6806922633734018
    Two-Electron Energy =                  40.7292316274033155
    DFT Exchange-Correlation Energy =      -7.2891568893842180
    Empirical Dispersion Energy =           0.0000000000000000
    VV10 Nonlocal Energy =                  0.0000000000000000
    Total Energy =                        -75.6978407734440424

  UHF NO Occupations:
  HONO-2 :    1 B2 1.9998556
  HONO-1 :    3 A1 1.9993657
  HONO-0 :    1 B1 1.0000000
  LUNO+0 :    4 A1 0.0006343
  LUNO+1 :    2 B2 0.0001444
  LUNO+2 :    5 A1 0.0001160
  LUNO+3 :    6 A1 0.0000006

Computation Completed

Properties will be evaluated at   0.000000,   0.000000,   0.000000 [a0]

Properties computed using the B3LYP density matrix

 Multipole Moments:

 ------------------------------------------------------------------------------------
     Multipole            Electronic (a.u.)      Nuclear  (a.u.)        Total (a.u.)
 ------------------------------------------------------------------------------------

 L = 1.  Multiply by 2.5417464519 to convert [e a0] to [Debye]
 Dipole X            :          0.0000000            0.0000000            0.0000000
 Dipole Y            :          0.0000000            0.0000000            0.0000000
 Dipole Z            :         -0.0527276            0.6733543            0.6206267
 Magnitude           :                                                    0.6206267

 L = 2.  Multiply by 1.3450342976 to convert [e a0^2] to [Debye ang]
 Quadrupole XX       :         -3.8474907            0.0000000           -3.8474907
 Quadrupole XY       :          0.0000000            0.0000000            0.0000000
 Quadrupole XZ       :          0.0000000            0.0000000            0.0000000
 Quadrupole YY       :         -4.7290177            0.0000000           -4.7290177
 Quadrupole YZ       :          0.0000000            0.0000000            0.0000000
 Quadrupole ZZ       :         -5.4282796            1.9020872           -3.5261924
 Traceless XX        :          0.8207720           -0.6340291            0.1867429
 Traceless YY        :         -0.0607550           -0.6340291           -0.6947841
 Traceless ZZ        :         -0.7600169            1.2680581            0.5080412

 ------------------------------------------------------------------------------------
  ==> Computing MBIS Charges <==

  Electron Count from Grid (Expected Number):  9.00000 ( 9.00000)
  Difference: -0.00000

  MBIS Charges: (a.u.)
   Center  Symbol  Z      Pop.       Charge
      1       O    8    8.424538   -0.424538
      2       H    1    0.575462    0.424538

  MBIS Dipoles: [e a0]
   Center  Symbol  Z        X           Y           Z
      1       O    8    0.000000   -0.000000   -0.013450
      2       H    1   -0.000000    0.000000    0.021333

  MBIS Quadrupoles: [e a0^2]
   Center  Symbol  Z      XX        XY        XZ        YY        YZ        ZZ
      1       O    8   -3.6633    0.0000   -0.0000   -4.5198   -0.0000   -4.1697
      2       H    1   -0.1842   -0.0000    0.0000   -0.2092   -0.0000   -0.1962

  MBIS Octupoles: [e a0^3]
   Center  Symbol  Z      XXX       XXY       XXZ       XYY       XYZ       XZZ       YYY       YYZ       YZZ       ZZZ
      1       O    8   -0.0000   -0.0000    0.0488   -0.0000   -0.0000    0.0000   -0.0000    0.0047   -0.0000   -0.1277
      2       H    1    0.0000   -0.0000   -0.0007    0.0000   -0.0000    0.0000   -0.0000    0.0041   -0.0000    0.0037

  MBIS Radial Moments:
   Center  Symbol  Z      [a0^2]      [a0^3]      [a0^4]
      1       O    8   12.352852   23.547339   53.622860
      2       H    1    0.589623    0.859549    1.503581

  MBIS Valence Widths: [a0]
   Center  Symbol  Z     Width
      1       O    8    0.390507
      2       H    1    0.293120

*** tstop() called on Mac.lan at Sun Aug 10 17:10:46 2025
Module time:
	user time   =       2.66 seconds =       0.04 minutes
	system time =       2.68 seconds =       0.04 minutes
	total time  =          0 seconds =       0.00 minutes
Total time:
	user time   =      12.66 seconds =       0.21 minutes
	system time =       4.86 seconds =       0.08 minutes
	total time  =          1 seconds =       0.02 minutes

    Psi4 stopped on: Sunday, 10 August 2025 05:10PM
    Psi4 wall time for execution: 0:00:01.71

*** Psi4 exiting successfully. Buy a developer a beer!
