                               Psi4 1.9.1 release

  ==> Input File <==

--------------------------------------------------------------------------
molecule {
0 1
O           0.000000           0.000000           0.000000
C           0.000000           0.000000           1.668511
}

set {
basis              cc-pvtz
reference          uks
maxiter            500
DAMPING_PERCENTAGE 1
E_CONVERGENCE      1.0E-8
D_CONVERGENCE      1.0E-8
DIIS_MAX_VECS      400
MBIS_MAXITER       8000
guess              read
}

E, wfn = energy('b3lyp', restart_file='last_wfn', return_wfn=True)
properties('b3lyp','MBIS_CHARGES', wfn=wfn)
wfn.to_file('last_wfn')
--------------------------------------------------------------------------

    Molecular point group: c2v
  Charge       = 0
  Multiplicity = 1
  Basis Set: CC-PVTZ
    Blend: CC-PVTZ
  Basis Set: (CC-PVTZ AUX)
    Blend: CC-PVTZ-JKFIT
  @DF-UKS Final Energy:  -113.13006595077593
    Total Energy =                       -113.1300659507759292
 Dipole X            :          0.0000000            0.0000000            0.0000000
 Dipole Y            :          0.0000000            0.0000000            0.0000000
 Dipole Z            :          0.6648053           -0.0034366            0.6613688
 Magnitude           :                                                    0.6613688
    Molecular point group: c2v

    Geometry (in Angstrom), charge = 0, multiplicity = 1:

       Center              X                  Y                   Z               Mass
    ------------   -----------------  -----------------  -----------------  -----------------
         O            0.000000000000     0.000000000000    -0.715206039100    15.994914619570
         C            0.000000000000     0.000000000000     0.953304960900    12.000000000000

  Charge       = 0
  Multiplicity = 1
  Basis Set: CC-PVTZ
    Blend: CC-PVTZ
  Basis Set: (CC-PVTZ AUX)
    Blend: CC-PVTZ-JKFIT

    Orbital Energies [Eh]
    ---------------------

    Alpha Occupied:

       1A1   -19.227734     2A1   -10.419311     3A1    -0.954308
       4A1    -0.600095     5A1    -0.383640     1B1    -0.356031
       1B2    -0.356031

    Alpha Virtual:

       2B1    -0.167307     2B2    -0.167307     6A1    -0.005605
       7A1     0.268424     3B1     0.284242     3B2     0.284242
       8A1     0.323789     9A1     0.558446     4B1     0.596605
       4B2     0.596605     1A2     0.629880    10A1     0.629880
       5B1     0.734819     5B2     0.734819    11A1     0.935766
      12A1     1.214258     2A2     1.468711    13A1     1.468712
       6B1     1.601036     6B2     1.601036    14A1     1.736007
       7B1     1.919635     7B2     1.919635    15A1     2.286562
       8B2     2.603341     8B1     2.603341     3A2     2.626557
      16A1     2.626557     9B2     2.754935     9B1     2.754935
      17A1     2.777247    18A1     2.859212     4A2     2.859216
      10B2     3.033322    10B1     3.033322    19A1     3.132390
      11B1     3.637229    11B2     3.637229    20A1     3.672043
      21A1     4.532807    12B1     5.102220    12B2     5.102220
      22A1     5.126620     5A2     5.126623    13B1     5.307418
      13B2     5.307418    23A1     5.603111     6A2     6.166412
      24A1     6.166445    14B1     6.422219    14B2     6.422219
      25A1     6.899597    26A1     8.133939

    Beta Occupied:

       1A1   -19.227734     2A1   -10.419311     3A1    -0.954308
       4A1    -0.600095     5A1    -0.383640     1B2    -0.356031
       1B1    -0.356031

    Beta Virtual:

       2B1    -0.167307     2B2    -0.167307     6A1    -0.005605
       7A1     0.268424     3B1     0.284242     3B2     0.284242
       8A1     0.323789     9A1     0.558446     4B1     0.596605
       4B2     0.596605     1A2     0.629880    10A1     0.629880
       5B1     0.734819     5B2     0.734819    11A1     0.935766
      12A1     1.214258     2A2     1.468711    13A1     1.468712
       6B1     1.601036     6B2     1.601036    14A1     1.736007
       7B1     1.919635     7B2     1.919635    15A1     2.286562
       8B2     2.603341     8B1     2.603341     3A2     2.626557
      16A1     2.626557     9B2     2.754935     9B1     2.754935
      17A1     2.777247    18A1     2.859212     4A2     2.859216
      10B2     3.033322    10B1     3.033322    19A1     3.132390
      11B1     3.637229    11B2     3.637229    20A1     3.672043
      21A1     4.532807    12B1     5.102220    12B2     5.102220
      22A1     5.126620     5A2     5.126623    13B1     5.307418
      13B2     5.307418    23A1     5.603111     6A2     6.166412
      24A1     6.166445    14B1     6.422219    14B2     6.422219
      25A1     6.899597    26A1     8.133939

    Final Occupation by Irrep:
             A1    A2    B1    B2
    DOCC [     5,    0,    1,    1 ]
    SOCC [     0,    0,    0,    0 ]
    NA   [     5,    0,    1,    1 ]
    NB   [     5,    0,    1,    1 ]

  @DF-UKS Final Energy:  -113.13006595079463

   => Energetics <=

    Nuclear Repulsion Energy =             15.2234573893489493
    One-Electron Energy =                -184.2061161679952761
    Two-Electron Energy =                  66.8306740480523729
    DFT Exchange-Correlation Energy =     -10.9780812202006572
    Empirical Dispersion Energy =           0.0000000000000000
    VV10 Nonlocal Energy =                  0.0000000000000000
    Total Energy =                       -113.1300659507946307

  UHF NO Occupations:
  HONO-2 :    1 B2 2.0000000
  HONO-1 :    4 A1 2.0000000
  HONO-0 :    5 A1 2.0000000
  LUNO+0 :    6 A1 0.0000000
  LUNO+1 :    7 A1 0.0000000
  LUNO+2 :    8 A1 0.0000000
  LUNO+3 :    9 A1 0.0000000

Computation Completed

Properties will be evaluated at   0.000000,   0.000000,   0.000000 [a0]

Properties computed using the B3LYP density matrix

 Multipole Moments:

 ------------------------------------------------------------------------------------
     Multipole            Electronic (a.u.)      Nuclear  (a.u.)        Total (a.u.)
 ------------------------------------------------------------------------------------

 L = 1.  Multiply by 2.5417464519 to convert [e a0] to [Debye]
 Dipole X            :          0.0000000            0.0000000            0.0000000
 Dipole Y            :          0.0000000            0.0000000            0.0000000
 Dipole Z            :          0.6648053           -0.0034366            0.6613687
 Magnitude           :                                                    0.6613687

 L = 2.  Multiply by 1.3450342976 to convert [e a0^2] to [Debye ang]
 Quadrupole XX       :         -8.2144533            0.0000000           -8.2144533
 Quadrupole XY       :          0.0000000            0.0000000            0.0000000
 Quadrupole XZ       :          0.0000000            0.0000000            0.0000000
 Quadrupole YY       :         -8.2144533            0.0000000           -8.2144533
 Quadrupole YZ       :          0.0000000            0.0000000            0.0000000
 Quadrupole ZZ       :        -42.4899936           34.0854550           -8.4045386
 Traceless XX        :         11.4251801          -11.3618183            0.0633618
 Traceless YY        :         11.4251801          -11.3618183            0.0633618
 Traceless ZZ        :        -22.8503602           22.7236366           -0.1267235

 ------------------------------------------------------------------------------------
  ==> Computing MBIS Charges <==

  Electron Count from Grid (Expected Number): 14.00000 (14.00000)
  Difference: -0.00000

  MBIS Charges: (a.u.)
   Center  Symbol  Z      Pop.       Charge
      1       O    8    8.308000   -0.308000
      2       C    6    5.692000    0.308000

  MBIS Dipoles: [e a0]
   Center  Symbol  Z        X           Y           Z
      1       O    8   -0.000000   -0.000000   -0.164659
      2       C    6    0.000000    0.000000   -0.145106

  MBIS Quadrupoles: [e a0^2]
   Center  Symbol  Z      XX        XY        XZ        YY        YZ        ZZ
      1       O    8   -4.2382   -0.0000   -0.0000   -4.2382    0.0000   -4.2138
      2       C    6   -3.9762    0.0000    0.0000   -3.9762    0.0000   -4.5500

  MBIS Octupoles: [e a0^3]
   Center  Symbol  Z      XXX       XXY       XXZ       XYY       XYZ       XZZ       YYY       YYZ       YZZ       ZZZ
      1       O    8    0.0000   -0.0000   -0.1943   -0.0000   -0.0000    0.0000   -0.0000   -0.1943   -0.0000   -0.5981
      2       C    6   -0.0000   -0.0000    0.0958    0.0000    0.0000    0.0000    0.0000    0.0958    0.0000    0.0362

  MBIS Radial Moments:
   Center  Symbol  Z      [a0^2]      [a0^3]      [a0^4]
      1       O    8   12.690225   24.724102   57.505738
      2       C    6   12.502445   30.301720   87.244392

  MBIS Valence Widths: [a0]
   Center  Symbol  Z     Width
      1       O    8    0.400174
      2       C    6    0.514961

*** tstop() called on Mac.lan at Sun Aug 10 17:19:02 2025
Module time:
	user time   =       3.59 seconds =       0.06 minutes
	system time =       2.04 seconds =       0.03 minutes
	total time  =          1 seconds =       0.02 minutes
Total time:
	user time   =      18.34 seconds =       0.31 minutes
	system time =       4.10 seconds =       0.07 minutes
	total time  =          2 seconds =       0.03 minutes

    Psi4 stopped on: Sunday, 10 August 2025 05:19PM
    Psi4 wall time for execution: 0:00:02.17

*** Psi4 exiting successfully. Buy a developer a beer!
