                               Psi4 1.9.1 release

  ==> Input File <==

--------------------------------------------------------------------------
molecule {
0 1
H           0.000000           0.000000           0.000000
H           0.000000           0.000000           0.636741
}

set {
basis              cc-pvtz
reference          uks
maxiter            500
DAMPING_PERCENTAGE 1
E_CONVERGENCE      1.0E-8
D_CONVERGENCE      1.0E-8
DIIS_MAX_VECS      400
MBIS_MAXITER       8000
guess              read
}

E, wfn = energy('b3lyp', restart_file='last_wfn', return_wfn=True)
properties('b3lyp','MBIS_CHARGES', wfn=wfn)
wfn.to_file('last_wfn')
--------------------------------------------------------------------------

    Molecular point group: d2h
  Charge       = 0
  Multiplicity = 1
  Basis Set: CC-PVTZ
    Blend: CC-PVTZ
  Basis Set: (CC-PVTZ AUX)
    Blend: CC-PVTZ-JKFIT
  @DF-UKS Final Energy:    -1.17046531291769
    Total Energy =                         -1.1704653129176938
 Dipole X            :          0.0000000            0.0000000            0.0000000
 Dipole Y            :          0.0000000            0.0000000            0.0000000
 Dipole Z            :          0.0000000            0.0000000            0.0000000
 Magnitude           :                                                    0.0000000
    Molecular point group: d2h

    Geometry (in Angstrom), charge = 0, multiplicity = 1:

       Center              X                  Y                   Z               Mass
    ------------   -----------------  -----------------  -----------------  -----------------
         H            0.000000000000     0.000000000000    -0.318370500000     1.007825032230
         H            0.000000000000     0.000000000000     0.318370500000     1.007825032230

  Charge       = 0
  Multiplicity = 1
  Basis Set: CC-PVTZ
    Blend: CC-PVTZ
  Basis Set: (CC-PVTZ AUX)
    Blend: CC-PVTZ-JKFIT

    Orbital Energies [Eh]
    ---------------------

    Alpha Occupied:

       1Ag    -0.457746

    Alpha Virtual:

       1B1u    0.077464     2Ag     0.188264     2B1u    0.511212
       1B3u    0.522134     1B2u    0.522134     3Ag     0.938918
       1B2g    0.954397     1B3g    0.954397     3B1u    1.395759
       4Ag     2.032638     4B1u    2.121024     5Ag     2.899163
       1B1g    2.899163     2B3u    3.124065     2B2u    3.124065
       6Ag     3.392360     2B2g    3.502898     2B3g    3.502898
       5B1u    3.903688     1Au     3.903688     3B2u    3.916352
       3B3u    3.916352     6B1u    4.676805     3B3g    5.829512
       3B2g    5.829512     7Ag     5.898479     7B1u    7.260580

    Beta Occupied:

       1Ag    -0.457746

    Beta Virtual:

       1B1u    0.077464     2Ag     0.188264     2B1u    0.511212
       1B3u    0.522134     1B2u    0.522134     3Ag     0.938918
       1B2g    0.954397     1B3g    0.954397     3B1u    1.395759
       4Ag     2.032638     4B1u    2.121024     5Ag     2.899163
       1B1g    2.899163     2B3u    3.124065     2B2u    3.124065
       6Ag     3.392360     2B2g    3.502898     2B3g    3.502898
       5B1u    3.903688     1Au     3.903688     3B2u    3.916352
       3B3u    3.916352     6B1u    4.676805     3B3g    5.829512
       3B2g    5.829512     7Ag     5.898479     7B1u    7.260580

    Final Occupation by Irrep:
             Ag   B1g   B2g   B3g    Au   B1u   B2u   B3u
    DOCC [     1,    0,    0,    0,    0,    0,    0,    0 ]
    SOCC [     0,    0,    0,    0,    0,    0,    0,    0 ]
    NA   [     1,    0,    0,    0,    0,    0,    0,    0 ]
    NB   [     1,    0,    0,    0,    0,    0,    0,    0 ]

  @DF-UKS Final Energy:    -1.17046531305658

   => Energetics <=

    Nuclear Repulsion Energy =              0.8310713628775279
    One-Electron Energy =                  -2.6510855361162267
    Two-Electron Energy =                   1.2530726445311060
    DFT Exchange-Correlation Energy =      -0.6035237843489873
    Empirical Dispersion Energy =           0.0000000000000000
    VV10 Nonlocal Energy =                  0.0000000000000000
    Total Energy =                         -1.1704653130565801

  UHF NO Occupations:
  HONO-0 :    1 Ag 2.0000000
  LUNO+0 :    2 Ag 0.0000000
  LUNO+1 :    3 Ag 0.0000000
  LUNO+2 :    4 Ag 0.0000000
  LUNO+3 :    5 Ag 0.0000000

Computation Completed

Properties will be evaluated at   0.000000,   0.000000,   0.000000 [a0]

Properties computed using the B3LYP density matrix

 Multipole Moments:

 ------------------------------------------------------------------------------------
     Multipole            Electronic (a.u.)      Nuclear  (a.u.)        Total (a.u.)
 ------------------------------------------------------------------------------------

 L = 1.  Multiply by 2.5417464519 to convert [e a0] to [Debye]
 Dipole X            :          0.0000000            0.0000000            0.0000000
 Dipole Y            :          0.0000000            0.0000000            0.0000000
 Dipole Z            :          0.0000000            0.0000000            0.0000000
 Magnitude           :                                                    0.0000000

 L = 2.  Multiply by 1.3450342976 to convert [e a0^2] to [Debye ang]
 Quadrupole XX       :         -1.4499310            0.0000000           -1.4499310
 Quadrupole XY       :          0.0000000            0.0000000            0.0000000
 Quadrupole XZ       :          0.0000000            0.0000000            0.0000000
 Quadrupole YY       :         -1.4499310            0.0000000           -1.4499310
 Quadrupole YZ       :          0.0000000            0.0000000            0.0000000
 Quadrupole ZZ       :         -1.8534872            0.7239247           -1.1295625
 Traceless XX        :          0.1345187           -0.2413082           -0.1067895
 Traceless YY        :          0.1345187           -0.2413082           -0.1067895
 Traceless ZZ        :         -0.2690375            0.4826164            0.2135790

 ------------------------------------------------------------------------------------
  ==> Computing MBIS Charges <==

  Electron Count from Grid (Expected Number):  2.00000 ( 2.00000)
  Difference: -0.00000

  MBIS Charges: (a.u.)
   Center  Symbol  Z      Pop.       Charge
      1       H    1    1.000000    0.000000
      2       H    1    1.000000    0.000000

  MBIS Dipoles: [e a0]
   Center  Symbol  Z        X           Y           Z
      1       H    1   -0.000000   -0.000000   -0.066329
      2       H    1    0.000000   -0.000000    0.066329

  MBIS Quadrupoles: [e a0^2]
   Center  Symbol  Z      XX        XY        XZ        YY        YZ        ZZ
      1       H    1   -0.7250   -0.0000   -0.0000   -0.7250   -0.0000   -0.6446
      2       H    1   -0.7250   -0.0000    0.0000   -0.7250    0.0000   -0.6446

  MBIS Octupoles: [e a0^3]
   Center  Symbol  Z      XXX       XXY       XXZ       XYY       XYZ       XZZ       YYY       YYZ       YZZ       ZZZ
      1       H    1    0.0000    0.0000   -0.0268    0.0000    0.0000    0.0000   -0.0000   -0.0268    0.0000   -0.0284
      2       H    1   -0.0000    0.0000    0.0268    0.0000   -0.0000    0.0000    0.0000    0.0268    0.0000    0.0284

  MBIS Radial Moments:
   Center  Symbol  Z      [a0^2]      [a0^3]      [a0^4]
      1       H    1    2.094524    4.501244   11.825588
      2       H    1    2.094524    4.501244   11.825588

  MBIS Valence Widths: [a0]
   Center  Symbol  Z     Width
      1       H    1    0.414539
      2       H    1    0.414539

*** tstop() called on Mac.lan at Sun Aug 10 16:59:19 2025
Module time:
	user time   =       0.49 seconds =       0.01 minutes
	system time =       1.39 seconds =       0.02 minutes
	total time  =          0 seconds =       0.00 minutes
Total time:
	user time   =       1.40 seconds =       0.02 minutes
	system time =       3.60 seconds =       0.06 minutes
	total time  =          1 seconds =       0.02 minutes

    Psi4 stopped on: Sunday, 10 August 2025 04:59PM
    Psi4 wall time for execution: 0:00:00.78

*** Psi4 exiting successfully. Buy a developer a beer!
