                               Psi4 1.9.1 release

  ==> Input File <==

--------------------------------------------------------------------------
molecule {
0 3
O           0.000000           0.000000           0.000000
O           0.000000           0.000000           1.587263
}

set {
basis              cc-pvtz
reference          uks
maxiter            500
DAMPING_PERCENTAGE 1
E_CONVERGENCE      1.0E-8
D_CONVERGENCE      1.0E-8
DIIS_MAX_VECS      400
MBIS_MAXITER       8000
guess              read
}

E, wfn = energy('b3lyp', restart_file='last_wfn', return_wfn=True)
properties('b3lyp','MBIS_CHARGES', wfn=wfn)
wfn.to_file('last_wfn')
--------------------------------------------------------------------------

    Molecular point group: d2h
  Charge       = 0
  Multiplicity = 3
  Basis Set: CC-PVTZ
    Blend: CC-PVTZ
  Basis Set: (CC-PVTZ AUX)
    Blend: CC-PVTZ-JKFIT
  @DF-UKS Final Energy:  -150.28352502903692
    Total Energy =                       -150.2835250290369231
 Dipole X            :          0.0000000            0.0000000            0.0000000
 Dipole Y            :          0.0000000            0.0000000            0.0000000
 Dipole Z            :          0.0000000            0.0000000            0.0000000
 Magnitude           :                                                    0.0000000
    Molecular point group: d2h

    Geometry (in Angstrom), charge = 0, multiplicity = 3:

       Center              X                  Y                   Z               Mass
    ------------   -----------------  -----------------  -----------------  -----------------
         O            0.000000000000     0.000000000000    -0.793631500000    15.994914619570
         O            0.000000000000     0.000000000000     0.793631500000    15.994914619570

  Charge       = 0
  Multiplicity = 3
  Basis Set: CC-PVTZ
    Blend: CC-PVTZ
  Basis Set: (CC-PVTZ AUX)
    Blend: CC-PVTZ-JKFIT

    Orbital Energies [Eh]
    ---------------------

    Alpha Occupied:

       1Ag   -19.318755     1B1u  -19.318718     2Ag    -1.115378
       2B1u   -0.937540     3Ag    -0.499715     1B3u   -0.489171
       1B2u   -0.489171     1B2g   -0.392187     1B3g   -0.392187

    Alpha Virtual:

       3B1u   -0.128724     4B1u    0.478467     2B3u    0.498552
       2B2u    0.498552     4Ag     0.583932     2B3g    0.602848
       2B2g    0.602848     5Ag     0.693844     5B1u    1.106963
       3B3u    1.183086     3B2u    1.183086     1B1g    1.301358
       6Ag     1.301359     1Au     1.480218     6B1u    1.480218
       7Ag     1.552230     3B2g    1.867783     3B3g    1.867783
       7B1u    2.264671     8Ag     3.336993     4B3u    3.399026
       4B2u    3.399026     4B2g    3.532492     4B3g    3.532492
       8B1u    4.013899     5B3u    4.696046     5B2u    4.696046
       9Ag     4.750988    10Ag     4.876353     2B1g    4.876355
       6B3u    4.996531     6B2u    4.996531     5B2g    5.024067
       5B3g    5.024067     9B1u    5.139736     2Au     5.139736
       6B3g    5.453192     6B2g    5.453192    10B1u    5.730661
       3B1g    5.982411    11Ag     5.982447     7B2u    6.030468
       7B3u    6.030468     3Au     6.104135    11B1u    6.104171
      12Ag     6.344408     7B3g    6.559169     7B2g    6.559169
      13Ag     7.220209    12B1u    7.260519    13B1u    7.920539

    Beta Occupied:

       1Ag   -19.289084     1B1u  -19.288989     2Ag    -1.045549
       2B1u   -0.848241     3Ag    -0.470645     1B3u   -0.378648
       1B2u   -0.378648

    Beta Virtual:

       1B3g   -0.206055     1B2g   -0.206055     3B1u   -0.092284
       4B1u    0.491319     2B3u    0.540872     2B2u    0.540872
       4Ag     0.598876     2B2g    0.641155     2B3g    0.641155
       5Ag     0.713639     5B1u    1.137839     3B3u    1.205960
       3B2u    1.205960     6Ag     1.349442     1B1g    1.349442
       6B1u    1.537334     1Au     1.537334     7Ag     1.580244
       3B2g    1.901873     3B3g    1.901873     7B1u    2.287737
       8Ag     3.354774     4B3u    3.471994     4B2u    3.471994
       4B2g    3.608513     4B3g    3.608513     8B1u    4.044759
       5B2u    4.732479     5B3u    4.732479     9Ag     4.786326
      10Ag     4.924561     2B1g    4.924563     6B3u    5.069360
       6B2u    5.069360     5B2g    5.097399     5B3g    5.097399
       9B1u    5.190306     2Au     5.190307     6B3g    5.494481
       6B2g    5.494481    10B1u    5.762504     3B1g    6.090482
      11Ag     6.090516     7B2u    6.092193     7B3u    6.092193
       3Au     6.210775    11B1u    6.210809    12Ag     6.370232
       7B3g    6.613633     7B2g    6.613633    13Ag     7.283475
      12B1u    7.291340    13B1u    7.970881

    Final Occupation by Irrep:
             Ag   B1g   B2g   B3g    Au   B1u   B2u   B3u
    DOCC [     3,    0,    0,    0,    0,    2,    1,    1 ]
    SOCC [     0,    0,    1,    1,    0,    0,    0,    0 ]
    NA   [     3,    0,    1,    1,    0,    2,    1,    1 ]
    NB   [     3,    0,    0,    0,    0,    2,    1,    1 ]

  @DF-UKS Final Energy:  -150.28352502902604

   => Energetics <=

    Nuclear Repulsion Energy =             21.3369438353190333
    One-Electron Energy =                -248.8111045668524071
    Two-Electron Energy =                  90.7902302477579894
    DFT Exchange-Correlation Energy =     -13.5995945452506515
    Empirical Dispersion Energy =           0.0000000000000000
    VV10 Nonlocal Energy =                  0.0000000000000000
    Total Energy =                       -150.2835250290260376

  UHF NO Occupations:
  HONO-2 :    1B2u 1.9977153
  HONO-1 :    1B2g 1.0000000
  HONO-0 :    1B3g 1.0000000
  LUNO+0 :    2B3u 0.0022847
  LUNO+1 :    2B2u 0.0022847
  LUNO+2 :    3B1u 0.0005530
  LUNO+3 :    4 Ag 0.0003264

Computation Completed

Properties will be evaluated at   0.000000,   0.000000,   0.000000 [a0]

Properties computed using the B3LYP density matrix

 Multipole Moments:

 ------------------------------------------------------------------------------------
     Multipole            Electronic (a.u.)      Nuclear  (a.u.)        Total (a.u.)
 ------------------------------------------------------------------------------------

 L = 1.  Multiply by 2.5417464519 to convert [e a0] to [Debye]
 Dipole X            :          0.0000000            0.0000000            0.0000000
 Dipole Y            :          0.0000000            0.0000000            0.0000000
 Dipole Z            :          0.0000000            0.0000000            0.0000000
 Magnitude           :                                                    0.0000000

 L = 2.  Multiply by 1.3450342976 to convert [e a0^2] to [Debye ang]
 Quadrupole XX       :         -7.7435456            0.0000000           -7.7435456
 Quadrupole XY       :          0.0000000            0.0000000            0.0000000
 Quadrupole XZ       :          0.0000000            0.0000000            0.0000000
 Quadrupole YY       :         -7.7435456            0.0000000           -7.7435456
 Quadrupole YZ       :          0.0000000            0.0000000            0.0000000
 Quadrupole ZZ       :        -43.1531654           35.9878176           -7.1653477
 Traceless XX        :         11.8032066          -11.9959392           -0.1927326
 Traceless YY        :         11.8032066          -11.9959392           -0.1927326
 Traceless ZZ        :        -23.6064132           23.9918784            0.3854653

 ------------------------------------------------------------------------------------
  ==> Computing MBIS Charges <==

  Electron Count from Grid (Expected Number): 16.00000 (16.00000)
  Difference: -0.00000

  MBIS Charges: (a.u.)
   Center  Symbol  Z      Pop.       Charge
      1       O    8    7.999999    0.000001
      2       O    8    7.999999    0.000001

  MBIS Dipoles: [e a0]
   Center  Symbol  Z        X           Y           Z
      1       O    8   -0.000000   -0.000000   -0.026885
      2       O    8   -0.000000   -0.000000    0.026885

  MBIS Quadrupoles: [e a0^2]
   Center  Symbol  Z      XX        XY        XZ        YY        YZ        ZZ
      1       O    8   -3.8718    0.0000   -0.0000   -3.8718   -0.0000   -3.6633
      2       O    8   -3.8718    0.0000    0.0000   -3.8718    0.0000   -3.6633

  MBIS Octupoles: [e a0^3]
   Center  Symbol  Z      XXX       XXY       XXZ       XYY       XYZ       XZZ       YYY       YYZ       YZZ       ZZZ
      1       O    8   -0.0000   -0.0000   -0.0754   -0.0000    0.0000   -0.0000   -0.0000   -0.0754   -0.0000   -0.3938
      2       O    8   -0.0000   -0.0000    0.0754   -0.0000   -0.0000    0.0000   -0.0000    0.0754   -0.0000    0.3938

  MBIS Radial Moments:
   Center  Symbol  Z      [a0^2]      [a0^3]      [a0^4]
      1       O    8   11.406862   21.611793   49.091480
      2       O    8   11.406862   21.611793   49.091480

  MBIS Valence Widths: [a0]
   Center  Symbol  Z     Width
      1       O    8    0.387824
      2       O    8    0.387824

*** tstop() called on Mac.lan at Sun Aug 10 17:02:13 2025
Module time:
	user time   =       3.62 seconds =       0.06 minutes
	system time =       2.39 seconds =       0.04 minutes
	total time  =          1 seconds =       0.02 minutes
Total time:
	user time   =      14.81 seconds =       0.25 minutes
	system time =       4.84 seconds =       0.08 minutes
	total time  =          2 seconds =       0.03 minutes

    Psi4 stopped on: Sunday, 10 August 2025 05:02PM
    Psi4 wall time for execution: 0:00:01.93

*** Psi4 exiting successfully. Buy a developer a beer!
