                               Psi4 1.9.1 release

  ==> Input File <==

--------------------------------------------------------------------------
molecule {
0 2
N           0.000000           0.000000           0.000000
C           0.000000           0.000000           1.274315
}

set {
basis              cc-pvtz
reference          uks
maxiter            500
DAMPING_PERCENTAGE 1
E_CONVERGENCE      1.0E-8
D_CONVERGENCE      1.0E-8
DIIS_MAX_VECS      400
MBIS_MAXITER       8000
guess              read
}

E, wfn = energy('b3lyp', restart_file='last_wfn', return_wfn=True)
properties('b3lyp','MBIS_CHARGES', wfn=wfn)
wfn.to_file('last_wfn')
--------------------------------------------------------------------------

    Molecular point group: c2v
  Charge       = 0
  Multiplicity = 2
  Basis Set: CC-PVTZ
    Blend: CC-PVTZ
  Basis Set: (CC-PVTZ AUX)
    Blend: CC-PVTZ-JKFIT
  @DF-UKS Final Energy:   -92.72605806160216
    Total Energy =                        -92.7260580616021599
 Dipole X            :          0.0000000            0.0000000            0.0000000
 Dipole Y            :          0.0000000            0.0000000            0.0000000
 Dipole Z            :          0.4534491            0.0017081            0.4551572
 Magnitude           :                                                    0.4551572
    Molecular point group: c2v

    Geometry (in Angstrom), charge = 0, multiplicity = 2:

       Center              X                  Y                   Z               Mass
    ------------   -----------------  -----------------  -----------------  -----------------
         N            0.000000000000     0.000000000000    -0.588075855854    14.003074004430
         C            0.000000000000     0.000000000000     0.686239144146    12.000000000000

  Charge       = 0
  Multiplicity = 2
  Basis Set: CC-PVTZ
    Blend: CC-PVTZ
  Basis Set: (CC-PVTZ AUX)
    Blend: CC-PVTZ-JKFIT

    Orbital Energies [Eh]
    ---------------------

    Alpha Occupied:

       1A1   -14.417024     2A1   -10.324834     3A1    -0.928395
       4A1    -0.526463     5A1    -0.412922     1B1    -0.374306
       1B2    -0.374306

    Alpha Virtual:

       2B2    -0.055138     2B1    -0.055138     6A1     0.162316
       7A1     0.276726     3B2     0.285606     3B1     0.285606
       8A1     0.428565     9A1     0.474877     4B1     0.507784
       4B2     0.507784     1A2     0.621846    10A1     0.621846
       5B1     0.781767     5B2     0.781767    11A1     0.869554
       2A2     1.129052    12A1     1.129052    13A1     1.158317
       6B1     1.460111     6B2     1.460111    14A1     1.690161
       7B1     1.968313     7B2     1.968313    15A1     2.142216
       8B2     2.622205     8B1     2.622205    16A1     2.662166
       3A2     2.662166     9B2     2.709443     9B1     2.709443
      17A1     2.788458    10B2     2.889887    10B1     2.889887
       4A2     2.906015    18A1     2.906016    19A1     3.009947
      11B1     3.326738    11B2     3.326738    20A1     3.598544
      12B2     3.895029    12B1     3.895029     5A2     4.250055
      21A1     4.250056    22A1     4.491260     6A2     4.491260
      13B2     4.696394    13B1     4.696394    23A1     4.762366
      24A1     5.242140    14B1     5.252082    14B2     5.252082
      25A1     5.441087    26A1    10.609700

    Beta Occupied:

       1A1   -14.411129     2A1   -10.310588     3A1    -0.903693
       4A1    -0.458705     1B1    -0.366507     1B2    -0.366507

    Beta Virtual:

       5A1    -0.255438     2B2    -0.035108     2B1    -0.035108
       6A1     0.170282     3B2     0.293992     3B1     0.293992
       7A1     0.313193     8A1     0.438253     4B1     0.508888
       4B2     0.508888     9A1     0.527506     1A2     0.630805
      10A1     0.630805     5B1     0.811016     5B2     0.811016
      11A1     0.882414     2A2     1.130548    12A1     1.130548
      13A1     1.193426     6B1     1.479920     6B2     1.479920
      14A1     1.717521     7B1     1.981678     7B2     1.981678
      15A1     2.192022     8B2     2.636427     8B1     2.636427
       3A2     2.682094    16A1     2.682094     9B2     2.732089
       9B1     2.732089    17A1     2.833027    10B2     2.930159
      10B1     2.930159     4A2     2.937096    18A1     2.937097
      19A1     3.078761    11B1     3.365397    11B2     3.365397
      20A1     3.639259    12B2     3.889853    12B1     3.889853
       5A2     4.256384    21A1     4.256385    22A1     4.493718
       6A2     4.493719    13B2     4.725369    13B1     4.725369
      23A1     4.805174    14B1     5.279603    14B2     5.279603
      24A1     5.285110    25A1     5.450301    26A1    10.628357

    Final Occupation by Irrep:
             A1    A2    B1    B2
    DOCC [     4,    0,    1,    1 ]
    SOCC [     1,    0,    0,    0 ]
    NA   [     5,    0,    1,    1 ]
    NB   [     4,    0,    1,    1 ]

  @DF-UKS Final Energy:   -92.72605806158816

   => Energetics <=

    Nuclear Repulsion Energy =             17.4410901920953592
    One-Electron Energy =                -159.1341344841887349
    Two-Electron Energy =                  58.7180066301185519
    DFT Exchange-Correlation Energy =      -9.7510203996133544
    Empirical Dispersion Energy =           0.0000000000000000
    VV10 Nonlocal Energy =                  0.0000000000000000
    Total Energy =                        -92.7260580615881622

  UHF NO Occupations:
  HONO-2 :    1 B2 1.9986018
  HONO-1 :    4 A1 1.9983212
  HONO-0 :    5 A1 1.0000000
  LUNO+0 :    6 A1 0.0016788
  LUNO+1 :    2 B2 0.0013982
  LUNO+2 :    2 B1 0.0013982
  LUNO+3 :    7 A1 0.0001360

Computation Completed

Properties will be evaluated at   0.000000,   0.000000,   0.000000 [a0]

Properties computed using the B3LYP density matrix

 Multipole Moments:

 ------------------------------------------------------------------------------------
     Multipole            Electronic (a.u.)      Nuclear  (a.u.)        Total (a.u.)
 ------------------------------------------------------------------------------------

 L = 1.  Multiply by 2.5417464519 to convert [e a0] to [Debye]
 Dipole X            :          0.0000000            0.0000000            0.0000000
 Dipole Y            :          0.0000000            0.0000000            0.0000000
 Dipole Z            :          0.4534492            0.0017081            0.4551572
 Magnitude           :                                                    0.4551572

 L = 2.  Multiply by 1.3450342976 to convert [e a0^2] to [Debye ang]
 Quadrupole XX       :         -8.4112396            0.0000000           -8.4112396
 Quadrupole XY       :          0.0000000            0.0000000            0.0000000
 Quadrupole XZ       :          0.0000000            0.0000000            0.0000000
 Quadrupole YY       :         -8.4112396            0.0000000           -8.4112396
 Quadrupole YZ       :          0.0000000            0.0000000            0.0000000
 Quadrupole ZZ       :        -26.4274020           18.7351540           -7.6922480
 Traceless XX        :          6.0053875           -6.2450513           -0.2396639
 Traceless YY        :          6.0053875           -6.2450513           -0.2396639
 Traceless ZZ        :        -12.0107750           12.4901027            0.4793277

 ------------------------------------------------------------------------------------
  ==> Computing MBIS Charges <==

  Electron Count from Grid (Expected Number): 13.00000 (13.00000)
  Difference:  0.00000

  MBIS Charges: (a.u.)
   Center  Symbol  Z      Pop.       Charge
      1       N    7    7.212955   -0.212955
      2       C    6    5.787045    0.212955

  MBIS Dipoles: [e a0]
   Center  Symbol  Z        X           Y           Z
      1       N    7   -0.000000   -0.000000   -0.211201
      2       C    6    0.000000    0.000000    0.153541

  MBIS Quadrupoles: [e a0^2]
   Center  Symbol  Z      XX        XY        XZ        YY        YZ        ZZ
      1       N    7   -4.3422    0.0000   -0.0000   -4.3422   -0.0000   -4.4729
      2       C    6   -4.0691    0.0000   -0.0000   -4.0691    0.0000   -4.1821

  MBIS Octupoles: [e a0^3]
   Center  Symbol  Z      XXX       XXY       XXZ       XYY       XYZ       XZZ       YYY       YYZ       YZZ       ZZZ
      1       N    7    0.0000   -0.0000   -0.2963    0.0000    0.0000   -0.0000   -0.0000   -0.2963    0.0000   -0.6654
      2       C    6   -0.0000   -0.0000    0.2331    0.0000   -0.0000    0.0000    0.0000    0.2331    0.0000    0.4528

  MBIS Radial Moments:
   Center  Symbol  Z      [a0^2]      [a0^3]      [a0^4]
      1       N    7   13.157266   28.176303   71.971388
      2       C    6   12.320231   29.349490   83.240548

  MBIS Valence Widths: [a0]
   Center  Symbol  Z     Width
      1       N    7    0.447355
      2       C    6    0.503759

*** tstop() called on Mac.lan at Sun Aug 10 17:13:57 2025
Module time:
	user time   =       4.09 seconds =       0.07 minutes
	system time =       2.26 seconds =       0.04 minutes
	total time  =          0 seconds =       0.00 minutes
Total time:
	user time   =      28.50 seconds =       0.47 minutes
	system time =       4.98 seconds =       0.08 minutes
	total time  =          3 seconds =       0.05 minutes

    Psi4 stopped on: Sunday, 10 August 2025 05:13PM
    Psi4 wall time for execution: 0:00:03.28

*** Psi4 exiting successfully. Buy a developer a beer!
