                               Psi4 1.9.1 release

  ==> Input File <==

--------------------------------------------------------------------------
molecule {
0 3
O           0.000000           0.000000           0.000000
O           0.000000           0.000000           1.166453
}

set {
basis              cc-pvtz
reference          uks
maxiter            500
DAMPING_PERCENTAGE 1
E_CONVERGENCE      1.0E-8
D_CONVERGENCE      1.0E-8
DIIS_MAX_VECS      400
MBIS_MAXITER       8000
guess              read
}

E, wfn = energy('b3lyp', restart_file='last_wfn', return_wfn=True)
properties('b3lyp','MBIS_CHARGES', wfn=wfn)
wfn.to_file('last_wfn')
--------------------------------------------------------------------------

    Molecular point group: d2h
  Charge       = 0
  Multiplicity = 3
  Basis Set: CC-PVTZ
    Blend: CC-PVTZ
  Basis Set: (CC-PVTZ AUX)
    Blend: CC-PVTZ-JKFIT
  @DF-UKS Final Energy:  -150.37850637753652
    Total Energy =                       -150.3785063775365245
 Dipole X            :          0.0000000            0.0000000            0.0000000
 Dipole Y            :          0.0000000            0.0000000            0.0000000
 Dipole Z            :          0.0000000            0.0000000            0.0000000
 Magnitude           :                                                    0.0000000
    Molecular point group: d2h

    Geometry (in Angstrom), charge = 0, multiplicity = 3:

       Center              X                  Y                   Z               Mass
    ------------   -----------------  -----------------  -----------------  -----------------
         O            0.000000000000     0.000000000000    -0.583226500000    15.994914619570
         O            0.000000000000     0.000000000000     0.583226500000    15.994914619570

  Charge       = 0
  Multiplicity = 3
  Basis Set: CC-PVTZ
    Blend: CC-PVTZ
  Basis Set: (CC-PVTZ AUX)
    Blend: CC-PVTZ-JKFIT

    Orbital Energies [Eh]
    ---------------------

    Alpha Occupied:

       1Ag   -19.285291     1B1u  -19.285016     2Ag    -1.342808
       2B1u   -0.829430     1B2u   -0.582505     1B3u   -0.582505
       3Ag    -0.560106     1B3g   -0.299155     1B2g   -0.299155

    Alpha Virtual:

       3B1u    0.222679     2B2u    0.492866     2B3u    0.492866
       4B1u    0.513154     4Ag     0.543179     2B3g    0.613801
       2B2g    0.613801     5Ag     0.654544     1B1g    1.190863
       6Ag     1.190864     5B1u    1.195062     3B3u    1.308497
       3B2u    1.308497     6B1u    1.614692     1Au     1.614692
       7Ag     2.122425     7B1u    2.134277     3B3g    2.179460
       3B2g    2.179460     4B3u    3.390190     4B2u    3.390190
       8Ag     3.589627     4B3g    3.692142     4B2g    3.692142
       2B1g    4.531610     9Ag     4.531610     5B2u    4.641531
       5B3u    4.641531     8B1u    4.706587     6B2u    4.854919
       6B3u    4.854919    10Ag     4.922511     5B3g    5.143767
       5B2g    5.143767     9B1u    5.651789    10B1u    5.746837
       2Au     5.746838    11Ag     5.988469     3B1g    5.988480
      11B1u    6.221928     3Au     6.221939     6B3g    6.298328
       6B2g    6.298328     7B3u    6.421450     7B2u    6.421450
      12B1u    6.756727    12Ag     6.994495     7B3g    7.296489
       7B2g    7.296489    13Ag     7.544985    13B1u   13.086257

    Beta Occupied:

       1Ag   -19.254874     1B1u  -19.254449     2Ag    -1.288291
       2B1u   -0.740845     3Ag    -0.519957     1B2u   -0.481414
       1B3u   -0.481414

    Beta Virtual:

       1B3g   -0.103531     1B2g   -0.103531     3B1u    0.257661
       2B2u    0.526883     2B3u    0.526883     4B1u    0.536590
       4Ag     0.551967     2B3g    0.656253     2B2g    0.656253
       5Ag     0.677096     5B1u    1.227872     1B1g    1.232595
       6Ag     1.232595     3B3u    1.339694     3B2u    1.339694
       1Au     1.676716     6B1u    1.676716     7Ag     2.153077
       7B1u    2.154487     3B3g    2.216101     3B2g    2.216101
       4B3u    3.466104     4B2u    3.466104     8Ag     3.611769
       4B3g    3.768759     4B2g    3.768759     2B1g    4.571277
       9Ag     4.571278     5B2u    4.673994     5B3u    4.673994
       8B1u    4.743035     6B2u    4.925216     6B3u    4.925216
      10Ag     4.954483     5B3g    5.218900     5B2g    5.218900
       9B1u    5.693140     2Au     5.807319    10B1u    5.807319
      11Ag     6.098079     3B1g    6.098090    11B1u    6.321309
       3Au     6.321319     6B3g    6.358558     6B2g    6.358558
       7B3u    6.477517     7B2u    6.477517    12B1u    6.788216
      12Ag     7.041654     7B3g    7.332188     7B2g    7.332188
      13Ag     7.581633    13B1u   13.129950

    Final Occupation by Irrep:
             Ag   B1g   B2g   B3g    Au   B1u   B2u   B3u
    DOCC [     3,    0,    0,    0,    0,    2,    1,    1 ]
    SOCC [     0,    0,    1,    1,    0,    0,    0,    0 ]
    NA   [     3,    0,    1,    1,    0,    2,    1,    1 ]
    NB   [     3,    0,    0,    0,    0,    2,    1,    1 ]

  @DF-UKS Final Energy:  -150.37850637748562

   => Energetics <=

    Nuclear Repulsion Energy =             29.0344672977651008
    One-Electron Energy =                -263.8249479188799569
    Two-Electron Energy =                  98.2184215784293855
    DFT Exchange-Correlation Energy =     -13.8064473348001737
    Empirical Dispersion Energy =           0.0000000000000000
    VV10 Nonlocal Energy =                  0.0000000000000000
    Total Energy =                       -150.3785063774856212

  UHF NO Occupations:
  HONO-2 :    1B2u 1.9986032
  HONO-1 :    1B3g 1.0000000
  HONO-0 :    1B2g 1.0000000
  LUNO+0 :    2B2u 0.0013968
  LUNO+1 :    2B3u 0.0013968
  LUNO+2 :    3B1u 0.0007578
  LUNO+3 :    4 Ag 0.0002822

Computation Completed

Properties will be evaluated at   0.000000,   0.000000,   0.000000 [a0]

Properties computed using the B3LYP density matrix

 Multipole Moments:

 ------------------------------------------------------------------------------------
     Multipole            Electronic (a.u.)      Nuclear  (a.u.)        Total (a.u.)
 ------------------------------------------------------------------------------------

 L = 1.  Multiply by 2.5417464519 to convert [e a0] to [Debye]
 Dipole X            :          0.0000000            0.0000000            0.0000000
 Dipole Y            :          0.0000000            0.0000000            0.0000000
 Dipole Z            :          0.0000000            0.0000000            0.0000000
 Magnitude           :                                                    0.0000000

 L = 2.  Multiply by 1.3450342976 to convert [e a0^2] to [Debye ang]
 Quadrupole XX       :         -7.3157540            0.0000000           -7.3157540
 Quadrupole XY       :          0.0000000            0.0000000            0.0000000
 Quadrupole XZ       :          0.0000000            0.0000000            0.0000000
 Quadrupole YY       :         -7.3157540            0.0000000           -7.3157540
 Quadrupole YZ       :          0.0000000            0.0000000            0.0000000
 Quadrupole ZZ       :        -27.2583286           19.4353432           -7.8229854
 Traceless XX        :          6.6475249           -6.4784477            0.1690771
 Traceless YY        :          6.6475249           -6.4784477            0.1690771
 Traceless ZZ        :        -13.2950497           12.9568955           -0.3381543

 ------------------------------------------------------------------------------------
  ==> Computing MBIS Charges <==

  Electron Count from Grid (Expected Number): 16.00000 (16.00000)
  Difference:  0.00000

  MBIS Charges: (a.u.)
   Center  Symbol  Z      Pop.       Charge
      1       O    8    8.000001   -0.000001
      2       O    8    8.000001   -0.000001

  MBIS Dipoles: [e a0]
   Center  Symbol  Z        X           Y           Z
      1       O    8   -0.000000   -0.000000    0.114535
      2       O    8    0.000000    0.000000   -0.114535

  MBIS Quadrupoles: [e a0^2]
   Center  Symbol  Z      XX        XY        XZ        YY        YZ        ZZ
      1       O    8   -3.6579    0.0000    0.0000   -3.6579   -0.0000   -3.6590
      2       O    8   -3.6579   -0.0000   -0.0000   -3.6579    0.0000   -3.6590

  MBIS Octupoles: [e a0^3]
   Center  Symbol  Z      XXX       XXY       XXZ       XYY       XYZ       XZZ       YYY       YYZ       YZZ       ZZZ
      1       O    8    0.0000   -0.0000    0.1305    0.0000   -0.0000    0.0000   -0.0000    0.1305    0.0000   -0.0904
      2       O    8   -0.0000   -0.0000   -0.1305    0.0000    0.0000   -0.0000    0.0000   -0.1305    0.0000    0.0904

  MBIS Radial Moments:
   Center  Symbol  Z      [a0^2]      [a0^3]      [a0^4]
      1       O    8   10.974779   20.335369   45.240529
      2       O    8   10.974779   20.335369   45.240529

  MBIS Valence Widths: [a0]
   Center  Symbol  Z     Width
      1       O    8    0.380111
      2       O    8    0.380111

*** tstop() called on Mac.lan at Sun Aug 10 17:00:41 2025
Module time:
	user time   =       3.39 seconds =       0.06 minutes
	system time =       2.55 seconds =       0.04 minutes
	total time  =          1 seconds =       0.02 minutes
Total time:
	user time   =      15.13 seconds =       0.25 minutes
	system time =       4.80 seconds =       0.08 minutes
	total time  =          2 seconds =       0.03 minutes

    Psi4 stopped on: Sunday, 10 August 2025 05:00PM
    Psi4 wall time for execution: 0:00:01.94

*** Psi4 exiting successfully. Buy a developer a beer!
