                               Psi4 1.9.1 release

  ==> Input File <==

--------------------------------------------------------------------------
molecule {
0 1
N           0.000000           0.000000           0.000000
N           0.000000           0.000000           1.356363
}

set {
basis              cc-pvtz
reference          uks
maxiter            500
DAMPING_PERCENTAGE 1
E_CONVERGENCE      1.0E-8
D_CONVERGENCE      1.0E-8
DIIS_MAX_VECS      400
MBIS_MAXITER       8000
guess              read
}

E, wfn = energy('b3lyp', restart_file='last_wfn', return_wfn=True)
properties('b3lyp','MBIS_CHARGES', wfn=wfn)
wfn.to_file('last_wfn')
--------------------------------------------------------------------------

    Molecular point group: d2h
  Charge       = 0
  Multiplicity = 1
  Basis Set: CC-PVTZ
    Blend: CC-PVTZ
  Basis Set: (CC-PVTZ AUX)
    Blend: CC-PVTZ-JKFIT
  @DF-UKS Final Energy:  -109.45718929585547
    Total Energy =                       -109.4571892958554713
 Dipole X            :          0.0000000            0.0000000            0.0000000
 Dipole Y            :          0.0000000            0.0000000            0.0000000
 Dipole Z            :          0.0000000            0.0000000            0.0000000
 Magnitude           :                                                    0.0000000
    Molecular point group: d2h

    Geometry (in Angstrom), charge = 0, multiplicity = 1:

       Center              X                  Y                   Z               Mass
    ------------   -----------------  -----------------  -----------------  -----------------
         N            0.000000000000     0.000000000000    -0.678181500000    14.003074004430
         N            0.000000000000     0.000000000000     0.678181500000    14.003074004430

  Charge       = 0
  Multiplicity = 1
  Basis Set: CC-PVTZ
    Blend: CC-PVTZ
  Basis Set: (CC-PVTZ AUX)
    Blend: CC-PVTZ-JKFIT

    Orbital Energies [Eh]
    ---------------------

    Alpha Occupied:

       1Ag   -14.477254     1B1u  -14.476925     2Ag    -0.989747
       2B1u   -0.620531     3Ag    -0.420294     1B2u   -0.403258
       1B3u   -0.403258

    Alpha Virtual:

       1B3g   -0.123637     1B2g   -0.123637     3B1u    0.187195
       2B2u    0.412996     2B3u    0.412996     4B1u    0.429435
       4Ag     0.436120     5Ag     0.484517     2B3g    0.509385
       2B2g    0.509385     1B1g    0.862473     6Ag     0.862473
       5B1u    0.863493     3B2u    0.956863     3B3u    0.956863
       1Au     1.179980     6B1u    1.179980     7Ag     1.592794
       3B3g    1.603794     3B2g    1.603794     7B1u    1.639531
       4B2u    2.697975     4B3u    2.697975     8Ag     2.822667
       4B3g    2.910253     4B2g    2.910253     2B1g    3.471943
       9Ag     3.471944     5B3u    3.502306     5B2u    3.502306
       8B1u    3.592286    10Ag     3.651974     6B3u    3.722718
       6B2u    3.722718     5B2g    3.925607     5B3g    3.925607
       9B1u    4.288055    10B1u    4.305329     2Au     4.305330
      11Ag     4.326450     3B1g    4.326457    11B1u    4.554533
       3Au     4.554538     6B2g    4.563803     6B3g    4.563803
       7B2u    4.657267     7B3u    4.657267    12B1u    4.992810
      12Ag     5.223450     7B2g    5.502302     7B3g    5.502302
      13Ag     5.567436    13B1u    9.463881

    Beta Occupied:

       1Ag   -14.477254     1B1u  -14.476925     2Ag    -0.989747
       2B1u   -0.620531     3Ag    -0.420294     1B2u   -0.403258
       1B3u   -0.403258

    Beta Virtual:

       1B3g   -0.123637     1B2g   -0.123637     3B1u    0.187195
       2B2u    0.412996     2B3u    0.412996     4B1u    0.429435
       4Ag     0.436120     5Ag     0.484517     2B3g    0.509385
       2B2g    0.509385     1B1g    0.862473     6Ag     0.862473
       5B1u    0.863493     3B2u    0.956863     3B3u    0.956863
       1Au     1.179980     6B1u    1.179980     7Ag     1.592794
       3B3g    1.603794     3B2g    1.603794     7B1u    1.639531
       4B2u    2.697975     4B3u    2.697975     8Ag     2.822667
       4B3g    2.910253     4B2g    2.910253     2B1g    3.471943
       9Ag     3.471944     5B3u    3.502306     5B2u    3.502306
       8B1u    3.592286    10Ag     3.651974     6B3u    3.722718
       6B2u    3.722718     5B2g    3.925607     5B3g    3.925607
       9B1u    4.288055    10B1u    4.305329     2Au     4.305330
      11Ag     4.326450     3B1g    4.326457    11B1u    4.554533
       3Au     4.554538     6B2g    4.563803     6B3g    4.563803
       7B2u    4.657267     7B3u    4.657267    12B1u    4.992810
      12Ag     5.223450     7B2g    5.502302     7B3g    5.502302
      13Ag     5.567436    13B1u    9.463881

    Final Occupation by Irrep:
             Ag   B1g   B2g   B3g    Au   B1u   B2u   B3u
    DOCC [     3,    0,    0,    0,    0,    2,    1,    1 ]
    SOCC [     0,    0,    0,    0,    0,    0,    0,    0 ]
    NA   [     3,    0,    0,    0,    0,    2,    1,    1 ]
    NB   [     3,    0,    0,    0,    0,    2,    1,    1 ]

  @DF-UKS Final Energy:  -109.45718929600324

   => Energetics <=

    Nuclear Repulsion Energy =             19.1170677192093876
    One-Electron Energy =                -185.7282875272161391
    Two-Electron Energy =                  68.0380136756834872
    DFT Exchange-Correlation Energy =     -10.8839831636799680
    Empirical Dispersion Energy =           0.0000000000000000
    VV10 Nonlocal Energy =                  0.0000000000000000
    Total Energy =                       -109.4571892960032358

  UHF NO Occupations:
  HONO-2 :    2 Ag 2.0000000
  HONO-1 :    3 Ag 2.0000000
  HONO-0 :    1B2u 2.0000000
  LUNO+0 :    4 Ag 0.0000000
  LUNO+1 :    5 Ag 0.0000000
  LUNO+2 :    3B1u 0.0000000
  LUNO+3 :    6 Ag 0.0000000

Computation Completed

Properties will be evaluated at   0.000000,   0.000000,   0.000000 [a0]

Properties computed using the B3LYP density matrix

 Multipole Moments:

 ------------------------------------------------------------------------------------
     Multipole            Electronic (a.u.)      Nuclear  (a.u.)        Total (a.u.)
 ------------------------------------------------------------------------------------

 L = 1.  Multiply by 2.5417464519 to convert [e a0] to [Debye]
 Dipole X            :          0.0000000            0.0000000            0.0000000
 Dipole Y            :          0.0000000            0.0000000            0.0000000
 Dipole Z            :          0.0000000            0.0000000            0.0000000
 Magnitude           :                                                    0.0000000

 L = 2.  Multiply by 1.3450342976 to convert [e a0^2] to [Debye ang]
 Quadrupole XX       :         -8.0392736            0.0000000           -8.0392736
 Quadrupole XY       :          0.0000000            0.0000000            0.0000000
 Quadrupole XZ       :          0.0000000            0.0000000            0.0000000
 Quadrupole YY       :         -8.0392736            0.0000000           -8.0392736
 Quadrupole YZ       :          0.0000000            0.0000000            0.0000000
 Quadrupole ZZ       :        -31.6407763           22.9941652           -8.6466111
 Traceless XX        :          7.8671676           -7.6647217            0.2024458
 Traceless YY        :          7.8671676           -7.6647217            0.2024458
 Traceless ZZ        :        -15.7343351           15.3294435           -0.4048917

 ------------------------------------------------------------------------------------
  ==> Computing MBIS Charges <==

  Electron Count from Grid (Expected Number): 14.00000 (14.00000)
  Difference:  0.00000

  MBIS Charges: (a.u.)
   Center  Symbol  Z      Pop.       Charge
      1       N    7    7.000000   -0.000000
      2       N    7    7.000000   -0.000000

  MBIS Dipoles: [e a0]
   Center  Symbol  Z        X           Y           Z
      1       N    7   -0.000000   -0.000000   -0.003050
      2       N    7   -0.000000   -0.000000    0.003050

  MBIS Quadrupoles: [e a0^2]
   Center  Symbol  Z      XX        XY        XZ        YY        YZ        ZZ
      1       N    7   -4.0196    0.0000   -0.0000   -4.0196   -0.0000   -4.3311
      2       N    7   -4.0196    0.0000    0.0000   -4.0196    0.0000   -4.3311

  MBIS Octupoles: [e a0^3]
   Center  Symbol  Z      XXX       XXY       XXZ       XYY       XYZ       XZZ       YYY       YYZ       YZZ       ZZZ
      1       N    7   -0.0000   -0.0000   -0.1156    0.0000    0.0000    0.0000   -0.0000   -0.1156    0.0000   -0.2235
      2       N    7   -0.0000    0.0000    0.1156    0.0000   -0.0000    0.0000   -0.0000    0.1156    0.0000    0.2235

  MBIS Radial Moments:
   Center  Symbol  Z      [a0^2]      [a0^3]      [a0^4]
      1       N    7   12.370397   26.126597   65.704863
      2       N    7   12.370397   26.126597   65.704863

  MBIS Valence Widths: [a0]
   Center  Symbol  Z     Width
      1       N    7    0.442504
      2       N    7    0.442504

*** tstop() called on Mac.lan at Sun Aug 10 17:07:12 2025
Module time:
	user time   =       5.66 seconds =       0.09 minutes
	system time =       1.39 seconds =       0.02 minutes
	total time  =          0 seconds =       0.00 minutes
Total time:
	user time   =      25.80 seconds =       0.43 minutes
	system time =       3.55 seconds =       0.06 minutes
	total time  =          3 seconds =       0.05 minutes

    Psi4 stopped on: Sunday, 10 August 2025 05:07PM
    Psi4 wall time for execution: 0:00:02.98

*** Psi4 exiting successfully. Buy a developer a beer!
