                               Psi4 1.9.1 release

  ==> Input File <==

--------------------------------------------------------------------------
molecule {
0 2
O           0.000000           0.000000           0.000000
N           0.000000           0.000000           1.234822
}

set {
basis              cc-pvtz
reference          uks
maxiter            500
DAMPING_PERCENTAGE 1
E_CONVERGENCE      1.0E-8
D_CONVERGENCE      1.0E-8
DIIS_MAX_VECS      400
MBIS_MAXITER       8000
guess              read
}

E, wfn = energy('b3lyp', restart_file='last_wfn', return_wfn=True)
properties('b3lyp','MBIS_CHARGES', wfn=wfn)
wfn.to_file('last_wfn')
--------------------------------------------------------------------------

    Molecular point group: c2v
  Charge       = 0
  Multiplicity = 2
  Basis Set: CC-PVTZ
    Blend: CC-PVTZ
  Basis Set: (CC-PVTZ AUX)
    Blend: CC-PVTZ-JKFIT
  @DF-UKS Final Energy:  -129.92790378317156
    Total Energy =                       -129.9279037831715584
 Dipole X            :          0.0000000            0.0000000            0.0000000
 Dipole Y            :          0.0000000            0.0000000            0.0000000
 Dipole Z            :          0.0503611           -0.0046820            0.0456790
 Magnitude           :                                                    0.0456790
    Molecular point group: c2v

    Geometry (in Angstrom), charge = 0, multiplicity = 2:

       Center              X                  Y                   Z               Mass
    ------------   -----------------  -----------------  -----------------  -----------------
         O            0.000000000000     0.000000000000    -0.576415441216    15.994914619570
         N            0.000000000000     0.000000000000     0.658406558784    14.003074004430

  Charge       = 0
  Multiplicity = 2
  Basis Set: CC-PVTZ
    Blend: CC-PVTZ
  Basis Set: (CC-PVTZ AUX)
    Blend: CC-PVTZ-JKFIT

    Orbital Energies [Eh]
    ---------------------

    Alpha Occupied:

       1A1   -19.272868     2A1   -14.478875     3A1    -1.190593
       4A1    -0.708635     1B1    -0.513176     5A1    -0.483889
       1B2    -0.483601     2B1    -0.251203

    Alpha Virtual:

       2B2    -0.139995     6A1     0.202597     3B1     0.414956
       3B2     0.422571     7A1     0.431143     8A1     0.463957
       9A1     0.554925     4B1     0.594193     4B2     0.600622
       1A2     0.928474    10A1     0.930333     5B1     1.079140
       5B2     1.079184    11A1     1.174555     2A2     1.496847
      12A1     1.497980    13A1     1.567615     6B1     1.949754
       6B2     1.951075    14A1     2.145854     7B1     2.787814
       7B2     2.805637    15A1     3.038667     8B1     3.474522
       8B2     3.482590     3A2     3.742408    16A1     3.744177
       9B1     3.782788     9B2     3.783373    10B1     4.019393
      10B2     4.020213    17A1     4.027490    18A1     4.126349
       4A2     4.336944    19A1     4.342806    20A1     4.596478
      11B1     4.667369    11B2     4.673624    12B1     5.043559
      12B2     5.043675     5A2     5.391266    21A1     5.392305
      22A1     5.911785     6A2     6.141084    23A1     6.143203
      13B1     6.175100    13B2     6.177084    24A1     6.673878
      14B2     6.746067    14B1     6.746652    25A1     7.216758
      26A1    11.384014

    Beta Occupied:

       1A1   -19.262993     2A1   -14.462376     3A1    -1.168761
       4A1    -0.669678     1B2    -0.474714     5A1    -0.462631
       1B1    -0.439251

    Beta Virtual:

       2B2    -0.123963     2B1    -0.081521     6A1     0.214856
       3B2     0.429346     7A1     0.447193     3B1     0.452235
       8A1     0.474802     9A1     0.561468     4B2     0.603487
       4B1     0.620509     1A2     0.956726    10A1     0.956799
       5B2     1.081769     5B1     1.108593    11A1     1.183641
      12A1     1.517766     2A2     1.518022    13A1     1.581419
       6B2     1.953730     6B1     1.977062    14A1     2.157729
       7B2     2.819966     7B1     2.860297    15A1     3.052063
       8B2     3.487941     8B1     3.518155    16A1     3.767964
       3A2     3.768179     9B2     3.829987     9B1     3.830069
      10B2     4.025508    17A1     4.048685    10B1     4.057022
      18A1     4.141167    19A1     4.405674     4A2     4.405852
      20A1     4.615710    11B2     4.679884    11B1     4.716184
      12B2     5.066252    12B1     5.066261     5A2     5.409000
      21A1     5.409032    22A1     5.925232    23A1     6.176576
       6A2     6.176616    13B2     6.179897    13B1     6.209079
      24A1     6.686070    14B2     6.748111    14B1     6.775664
      25A1     7.233496    26A1    11.402493

    Final Occupation by Irrep:
             A1    A2    B1    B2
    DOCC [     5,    0,    1,    1 ]
    SOCC [     0,    0,    1,    0 ]
    NA   [     5,    0,    2,    1 ]
    NB   [     5,    0,    1,    1 ]

  @DF-UKS Final Energy:  -129.92790378280145

   => Energetics <=

    Nuclear Repulsion Energy =             23.9985388967154769
    One-Electron Energy =                -224.6428726290060354
    Two-Electron Energy =                  83.0757410590955914
    DFT Exchange-Correlation Energy =     -12.3593111096064785
    Empirical Dispersion Energy =           0.0000000000000000
    VV10 Nonlocal Energy =                  0.0000000000000000
    Total Energy =                       -129.9279037828014509

  UHF NO Occupations:
  HONO-2 :    5 A1 1.9994814
  HONO-1 :    1 B1 1.9990479
  HONO-0 :    2 B1 1.0000000
  LUNO+0 :    3 B1 0.0009521
  LUNO+1 :    6 A1 0.0005186
  LUNO+2 :    2 B2 0.0003378
  LUNO+3 :    7 A1 0.0000913

Computation Completed

Properties will be evaluated at   0.000000,   0.000000,   0.000000 [a0]

Properties computed using the B3LYP density matrix

 Multipole Moments:

 ------------------------------------------------------------------------------------
     Multipole            Electronic (a.u.)      Nuclear  (a.u.)        Total (a.u.)
 ------------------------------------------------------------------------------------

 L = 1.  Multiply by 2.5417464519 to convert [e a0] to [Debye]
 Dipole X            :          0.0000000            0.0000000            0.0000000
 Dipole Y            :          0.0000000            0.0000000            0.0000000
 Dipole Z            :          0.0503611           -0.0046820            0.0456790
 Magnitude           :                                                    0.0456790

 L = 2.  Multiply by 1.3450342976 to convert [e a0^2] to [Debye ang]
 Quadrupole XX       :         -8.0213544            0.0000000           -8.0213544
 Quadrupole XY       :          0.0000000            0.0000000            0.0000000
 Quadrupole XZ       :          0.0000000            0.0000000            0.0000000
 Quadrupole YY       :         -7.2341410            0.0000000           -7.2341410
 Quadrupole YZ       :          0.0000000            0.0000000            0.0000000
 Quadrupole ZZ       :        -28.6439930           20.3284025           -8.3155905
 Traceless XX        :          6.6118084           -6.7761342           -0.1643257
 Traceless YY        :          7.3990218           -6.7761342            0.6228876
 Traceless ZZ        :        -14.0108302           13.5522683           -0.4585619

 ------------------------------------------------------------------------------------
  ==> Computing MBIS Charges <==

  Electron Count from Grid (Expected Number): 15.00000 (15.00000)
  Difference:  0.00000

  MBIS Charges: (a.u.)
   Center  Symbol  Z      Pop.       Charge
      1       O    8    8.071202   -0.071202
      2       N    7    6.928799    0.071201

  MBIS Dipoles: [e a0]
   Center  Symbol  Z        X           Y           Z
      1       O    8   -0.000000   -0.000000    0.023016
      2       N    7   -0.000000   -0.000000   -0.143483

  MBIS Quadrupoles: [e a0^2]
   Center  Symbol  Z      XX        XY        XZ        YY        YZ        ZZ
      1       O    8   -3.8415    0.0000   -0.0000   -3.5871    0.0000   -3.8045
      2       N    7   -4.1799    0.0000    0.0000   -3.6470   -0.0000   -4.1296

  MBIS Octupoles: [e a0^3]
   Center  Symbol  Z      XXX       XXY       XXZ       XYY       XYZ       XZZ       YYY       YYZ       YZZ       ZZZ
      1       O    8   -0.0000   -0.0000    0.0753   -0.0000    0.0000    0.0000   -0.0000    0.0179    0.0000   -0.1077
      2       N    7   -0.0000   -0.0000   -0.2005   -0.0000   -0.0000    0.0000   -0.0000    0.0080   -0.0000    0.0710

  MBIS Radial Moments:
   Center  Symbol  Z      [a0^2]      [a0^3]      [a0^4]
      1       O    8   11.233107   20.889665   46.586899
      2       N    7   11.956535   25.059026   62.618446

  MBIS Valence Widths: [a0]
   Center  Symbol  Z     Width
      1       O    8    0.382798
      2       N    7    0.437358

*** tstop() called on Mac.lan at Sun Aug 10 17:20:42 2025
Module time:
	user time   =       3.96 seconds =       0.07 minutes
	system time =       2.01 seconds =       0.03 minutes
	total time  =          1 seconds =       0.02 minutes
Total time:
	user time   =      20.19 seconds =       0.34 minutes
	system time =       4.49 seconds =       0.07 minutes
	total time  =          2 seconds =       0.03 minutes

    Psi4 stopped on: Sunday, 10 August 2025 05:20PM
    Psi4 wall time for execution: 0:00:02.39

*** Psi4 exiting successfully. Buy a developer a beer!
