                               Psi4 1.9.1 release

  ==> Input File <==

--------------------------------------------------------------------------
molecule {
0 2
C           0.000000           0.000000           0.000000
H           0.000000           0.000000           1.066369
}

set {
basis              cc-pvtz
reference          uks
maxiter            500
DAMPING_PERCENTAGE 1
E_CONVERGENCE      1.0E-8
D_CONVERGENCE      1.0E-8
DIIS_MAX_VECS      400
MBIS_MAXITER       8000
guess              read
}

E, wfn = energy('b3lyp', restart_file='last_wfn', return_wfn=True)
properties('b3lyp','MBIS_CHARGES', wfn=wfn)
wfn.to_file('last_wfn')
--------------------------------------------------------------------------

    Molecular point group: c2v
  Charge       = 0
  Multiplicity = 2
  Basis Set: CC-PVTZ
    Blend: CC-PVTZ
  Basis Set: (CC-PVTZ AUX)
    Blend: CC-PVTZ-JKFIT
  @DF-UKS Final Energy:   -38.49441687471085
    Total Energy =                        -38.4944168747108435
 Dipole X            :          0.0000000            0.0000000            0.0000000
 Dipole Y            :          0.0000000            0.0000000            0.0000000
 Dipole Z            :         -0.3012563            0.9222342            0.6209779
 Magnitude           :                                                    0.6209779
    Molecular point group: c2v

    Geometry (in Angstrom), charge = 0, multiplicity = 2:

       Center              X                  Y                   Z               Mass
    ------------   -----------------  -----------------  -----------------  -----------------
         C            0.000000000000     0.000000000000    -0.082620527962    12.000000000000
         H            0.000000000000     0.000000000000     0.983748472038     1.007825032230

  Charge       = 0
  Multiplicity = 2
  Basis Set: CC-PVTZ
    Blend: CC-PVTZ
  Basis Set: (CC-PVTZ AUX)
    Blend: CC-PVTZ-JKFIT

    Orbital Energies [Eh]
    ---------------------

    Alpha Occupied:

       1A1   -10.274648     2A1    -0.663987     3A1    -0.324322
       1B1    -0.259111

    Alpha Virtual:

       1B2    -0.147463     4A1     0.063814     5A1     0.284179
       2B1     0.292192     2B2     0.311773     6A1     0.351353
       7A1     0.458765     3B1     0.575640     3B2     0.579305
       1A2     0.655015     8A1     0.660780     9A1     0.961929
       4B1     1.039925     4B2     1.040168    10A1     1.452313
       5B1     1.935766     5B2     1.961698    11A1     2.012244
      12A1     2.171261     2A2     2.520843    13A1     2.524479
       6B1     2.628272     6B2     2.635078     7B1     2.642270
       7B2     2.644996     3A2     2.902977    14A1     2.909957
      15A1     2.939117     8B1     3.051887     8B2     3.058343
      16A1     3.318100     4A2     3.608338    17A1     3.610286
       9B2     3.822451     9B1     3.824906    18A1     4.630292
      10B1     4.808459    10B2     4.810208    19A1     4.875207
      20A1     8.629071

    Beta Occupied:

       1A1   -10.260038     2A1    -0.622663     3A1    -0.302929

    Beta Virtual:

       1B2    -0.131410     1B1    -0.085642     4A1     0.068275
       5A1     0.291174     2B2     0.319184     2B1     0.347547
       6A1     0.364189     7A1     0.472423     3B2     0.581100
       3B1     0.604983     8A1     0.698328     1A2     0.698541
       9A1     0.974425     4B2     1.041601     4B1     1.061074
      10A1     1.465742     5B2     1.973448     5B1     2.017540
      11A1     2.021251    12A1     2.190000     2A2     2.551181
      13A1     2.551565     6B2     2.638265     6B1     2.671420
       7B2     2.700746     7B1     2.701898    14A1     2.942390
       3A2     2.979530    15A1     2.992417     8B2     3.062426
       8B1     3.100046    16A1     3.331232     4A2     3.621673
      17A1     3.622186     9B2     3.819344     9B1     3.830342
      18A1     4.638167    10B2     4.811522    10B1     4.836364
      19A1     4.881957    20A1     8.645281

    Final Occupation by Irrep:
             A1    A2    B1    B2
    DOCC [     3,    0,    0,    0 ]
    SOCC [     0,    0,    1,    0 ]
    NA   [     3,    0,    1,    0 ]
    NB   [     3,    0,    0,    0 ]

  @DF-UKS Final Energy:   -38.49441687430307

   => Energetics <=

    Nuclear Repulsion Energy =              2.9774527054143549
    One-Electron Energy =                 -56.9401601827105992
    Two-Electron Energy =                  20.0331566881464482
    DFT Exchange-Correlation Energy =      -4.5648660851532803
    Empirical Dispersion Energy =           0.0000000000000000
    VV10 Nonlocal Energy =                  0.0000000000000000
    Total Energy =                        -38.4944168743030701

  UHF NO Occupations:
  HONO-2 :    2 A1 1.9998586
  HONO-1 :    3 A1 1.9986970
  HONO-0 :    1 B1 1.0000000
  LUNO+0 :    4 A1 0.0013030
  LUNO+1 :    5 A1 0.0001414
  LUNO+2 :    6 A1 0.0000007
  LUNO+3 :    7 A1 0.0000000

Computation Completed

Properties will be evaluated at   0.000000,   0.000000,   0.000000 [a0]

Properties computed using the B3LYP density matrix

 Multipole Moments:

 ------------------------------------------------------------------------------------
     Multipole            Electronic (a.u.)      Nuclear  (a.u.)        Total (a.u.)
 ------------------------------------------------------------------------------------

 L = 1.  Multiply by 2.5417464519 to convert [e a0] to [Debye]
 Dipole X            :          0.0000000            0.0000000            0.0000000
 Dipole Y            :          0.0000000            0.0000000            0.0000000
 Dipole Z            :         -0.3012563            0.9222342            0.6209779
 Magnitude           :                                                    0.6209779

 L = 2.  Multiply by 1.3450342976 to convert [e a0^2] to [Debye ang]
 Quadrupole XX       :         -5.6632082            0.0000000           -5.6632082
 Quadrupole XY       :          0.0000000            0.0000000            0.0000000
 Quadrupole XZ       :          0.0000000            0.0000000            0.0000000
 Quadrupole YY       :         -4.1639536            0.0000000           -4.1639536
 Quadrupole YZ       :          0.0000000            0.0000000            0.0000000
 Quadrupole ZZ       :         -9.1325920            3.6021973           -5.5303947
 Traceless XX        :          0.6567097           -1.2007324           -0.5440227
 Traceless YY        :          2.1559643           -1.2007324            0.9552319
 Traceless ZZ        :         -2.8126741            2.4014648           -0.4112092

 ------------------------------------------------------------------------------------
  ==> Computing MBIS Charges <==

  Electron Count from Grid (Expected Number):  7.00000 ( 7.00000)
  Difference: -0.00000

  MBIS Charges: (a.u.)
   Center  Symbol  Z      Pop.       Charge
      1       C    6    6.104668   -0.104668
      2       H    1    0.895332    0.104668

  MBIS Dipoles: [e a0]
   Center  Symbol  Z        X           Y           Z
      1       C    6    0.000000    0.000000    0.364957
      2       H    1   -0.000000   -0.000000    0.045099

  MBIS Quadrupoles: [e a0^2]
   Center  Symbol  Z      XX        XY        XZ        YY        YZ        ZZ
      1       C    6   -5.1549   -0.0000   -0.0000   -3.7221   -0.0000   -5.4414
      2       H    1   -0.5083    0.0000   -0.0000   -0.4419   -0.0000   -0.5019

  MBIS Octupoles: [e a0^3]
   Center  Symbol  Z      XXX       XXY       XXZ       XYY       XYZ       XZZ       YYY       YYZ       YZZ       ZZZ
      1       C    6   -0.0000    0.0000    0.5160   -0.0000   -0.0000   -0.0000    0.0000    0.5603    0.0000    1.0043
      2       H    1   -0.0000    0.0000    0.0045   -0.0000    0.0000    0.0000    0.0000   -0.0274   -0.0000   -0.0236

  MBIS Radial Moments:
   Center  Symbol  Z      [a0^2]      [a0^3]      [a0^4]
      1       C    6   14.318399   35.779099   106.830859
      2       H    1    1.452051    2.644455    5.805900

  MBIS Valence Widths: [a0]
   Center  Symbol  Z     Width
      1       C    6    0.523083
      2       H    1    0.370602

*** tstop() called on Mac.lan at Sun Aug 10 17:08:25 2025
Module time:
	user time   =       3.23 seconds =       0.05 minutes
	system time =       1.62 seconds =       0.03 minutes
	total time  =          1 seconds =       0.02 minutes
Total time:
	user time   =      11.52 seconds =       0.19 minutes
	system time =       3.81 seconds =       0.06 minutes
	total time  =          2 seconds =       0.03 minutes

    Psi4 stopped on: Sunday, 10 August 2025 05:08PM
    Psi4 wall time for execution: 0:00:01.51

*** Psi4 exiting successfully. Buy a developer a beer!
