                               Psi4 1.9.1 release

  ==> Input File <==

--------------------------------------------------------------------------
molecule {
0 1
N           0.000000           0.000000           0.000000
N           0.000000           0.000000           0.815154
}

set {
basis              cc-pvtz
reference          uks
maxiter            500
DAMPING_PERCENTAGE 1
E_CONVERGENCE      1.0E-8
D_CONVERGENCE      1.0E-8
DIIS_MAX_VECS      400
MBIS_MAXITER       8000
guess              read
}

E, wfn = energy('b3lyp', restart_file='last_wfn', return_wfn=True)
properties('b3lyp','MBIS_CHARGES', wfn=wfn)
wfn.to_file('last_wfn')
--------------------------------------------------------------------------

    Molecular point group: d2h
  Charge       = 0
  Multiplicity = 1
  Basis Set: CC-PVTZ
    Blend: CC-PVTZ
  Basis Set: (CC-PVTZ AUX)
    Blend: CC-PVTZ-JKFIT
  @DF-UKS Final Energy:  -109.12488962233570
    Total Energy =                       -109.1248896223357008
 Dipole X            :          0.0000000            0.0000000            0.0000000
 Dipole Y            :          0.0000000            0.0000000            0.0000000
 Dipole Z            :          0.0000000           -0.0000000           -0.0000000
 Magnitude           :                                                    0.0000000
    Molecular point group: d2h

    Geometry (in Angstrom), charge = 0, multiplicity = 1:

       Center              X                  Y                   Z               Mass
    ------------   -----------------  -----------------  -----------------  -----------------
         N            0.000000000000     0.000000000000    -0.407577000000    14.003074004430
         N            0.000000000000     0.000000000000     0.407577000000    14.003074004430

  Charge       = 0
  Multiplicity = 1
  Basis Set: CC-PVTZ
    Blend: CC-PVTZ
  Basis Set: (CC-PVTZ AUX)
    Blend: CC-PVTZ-JKFIT

    Orbital Energies [Eh]
    ---------------------

    Alpha Occupied:

       1Ag   -14.345529     1B1u  -14.318384     2Ag    -1.261652
       1B2u   -0.591679     1B3u   -0.591679     2B1u   -0.469984
       3Ag    -0.448320

    Alpha Virtual:

       1B2g    0.131363     1B3g    0.131363     3B1u    0.308336
       2B2u    0.346121     2B3u    0.346121     4Ag     0.380694
       5Ag     0.520460     2B2g    0.597518     2B3g    0.597518
       6Ag     0.829565     1B1g    0.829565     4B1u    0.835621
       3B2u    1.284779     3B3u    1.284779     5B1u    1.304200
       6B1u    1.373825     1Au     1.373825     7Ag     1.572242
       3B3g    1.702226     3B2g    1.702226     4B3u    2.614008
       4B2u    2.614008     7B1u    2.787684     8Ag     3.180500
       4B2g    3.386137     4B3g    3.386137     8B1u    3.458124
       5B3u    3.477382     5B2u    3.477382     9Ag     3.577406
       2B1g    3.577406     6B2u    3.951179     6B3u    3.951179
      10Ag     4.199904     5B3g    4.335490     5B2g    4.335490
       6B2g    4.347546     6B3g    4.347546     9B1u    4.417578
       2Au     4.417578    11Ag     4.465461     3B1g    4.465461
      12Ag     4.766636    10B1u    5.210647     7B2u    5.502200
       7B3u    5.502200    11B1u    5.741625     3Au     5.741625
      12B1u    7.099561     7B2g    7.640757     7B3g    7.640757
      13Ag     8.710344    13B1u   26.090909

    Beta Occupied:

       1Ag   -14.345529     1B1u  -14.318384     2Ag    -1.261652
       1B2u   -0.591679     1B3u   -0.591679     2B1u   -0.469984
       3Ag    -0.448320

    Beta Virtual:

       1B2g    0.131363     1B3g    0.131363     3B1u    0.308336
       2B2u    0.346121     2B3u    0.346121     4Ag     0.380694
       5Ag     0.520460     2B2g    0.597518     2B3g    0.597518
       6Ag     0.829565     1B1g    0.829565     4B1u    0.835621
       3B2u    1.284779     3B3u    1.284779     5B1u    1.304200
       6B1u    1.373825     1Au     1.373825     7Ag     1.572242
       3B3g    1.702226     3B2g    1.702226     4B3u    2.614008
       4B2u    2.614008     7B1u    2.787684     8Ag     3.180500
       4B2g    3.386137     4B3g    3.386137     8B1u    3.458124
       5B3u    3.477382     5B2u    3.477382     9Ag     3.577406
       2B1g    3.577406     6B2u    3.951179     6B3u    3.951179
      10Ag     4.199904     5B3g    4.335490     5B2g    4.335490
       6B2g    4.347546     6B3g    4.347546     9B1u    4.417578
       2Au     4.417578    11Ag     4.465461     3B1g    4.465461
      12Ag     4.766636    10B1u    5.210647     7B2u    5.502200
       7B3u    5.502200    11B1u    5.741625     3Au     5.741625
      12B1u    7.099561     7B2g    7.640757     7B3g    7.640757
      13Ag     8.710344    13B1u   26.090909

    Final Occupation by Irrep:
             Ag   B1g   B2g   B3g    Au   B1u   B2u   B3u
    DOCC [     3,    0,    0,    0,    0,    2,    1,    1 ]
    SOCC [     0,    0,    0,    0,    0,    0,    0,    0 ]
    NA   [     3,    0,    0,    0,    0,    2,    1,    1 ]
    NB   [     3,    0,    0,    0,    0,    2,    1,    1 ]

  @DF-UKS Final Energy:  -109.12488962220073

   => Energetics <=

    Nuclear Repulsion Energy =             31.8095517200798845
    One-Electron Energy =                -209.5588504202796400
    Two-Electron Energy =                  80.1170503221914601
    DFT Exchange-Correlation Energy =     -11.4926412441924377
    Empirical Dispersion Energy =           0.0000000000000000
    VV10 Nonlocal Energy =                  0.0000000000000000
    Total Energy =                       -109.1248896222007261

  UHF NO Occupations:
  HONO-2 :    2 Ag 2.0000000
  HONO-1 :    1B3u 2.0000000
  HONO-0 :    3 Ag 2.0000000
  LUNO+0 :    4 Ag 0.0000000
  LUNO+1 :    3B1u 0.0000000
  LUNO+2 :    5 Ag 0.0000000
  LUNO+3 :    4B1u 0.0000000

Computation Completed

Properties will be evaluated at   0.000000,   0.000000,   0.000000 [a0]

Properties computed using the B3LYP density matrix

 Multipole Moments:

 ------------------------------------------------------------------------------------
     Multipole            Electronic (a.u.)      Nuclear  (a.u.)        Total (a.u.)
 ------------------------------------------------------------------------------------

 L = 1.  Multiply by 2.5417464519 to convert [e a0] to [Debye]
 Dipole X            :          0.0000000            0.0000000            0.0000000
 Dipole Y            :          0.0000000            0.0000000            0.0000000
 Dipole Z            :          0.0000000           -0.0000000           -0.0000000
 Magnitude           :                                                    0.0000000

 L = 2.  Multiply by 1.3450342976 to convert [e a0^2] to [Debye ang]
 Quadrupole XX       :         -6.7797021            0.0000000           -6.7797021
 Quadrupole XY       :          0.0000000            0.0000000            0.0000000
 Quadrupole XZ       :          0.0000000            0.0000000            0.0000000
 Quadrupole YY       :         -6.7797021            0.0000000           -6.7797021
 Quadrupole YZ       :          0.0000000            0.0000000            0.0000000
 Quadrupole ZZ       :        -16.7824508            8.3051046           -8.4773462
 Traceless XX        :          3.3342496           -2.7683682            0.5658814
 Traceless YY        :          3.3342496           -2.7683682            0.5658814
 Traceless ZZ        :         -6.6684992            5.5367364           -1.1317628

 ------------------------------------------------------------------------------------
  ==> Computing MBIS Charges <==

  Electron Count from Grid (Expected Number): 14.00000 (14.00000)
  Difference:  0.00000

  MBIS Charges: (a.u.)
   Center  Symbol  Z      Pop.       Charge
      1       N    7    7.000000   -0.000000
      2       N    7    7.000000   -0.000000

  MBIS Dipoles: [e a0]
   Center  Symbol  Z        X           Y           Z
      1       N    7   -0.000000   -0.000000    0.123576
      2       N    7    0.000000    0.000000   -0.123576

  MBIS Quadrupoles: [e a0^2]
   Center  Symbol  Z      XX        XY        XZ        YY        YZ        ZZ
      1       N    7   -3.3899    0.0000    0.0000   -3.3899   -0.0000   -4.0483
      2       N    7   -3.3899    0.0000   -0.0000   -3.3899    0.0000   -4.0483

  MBIS Octupoles: [e a0^3]
   Center  Symbol  Z      XXX       XXY       XXZ       XYY       XYZ       XZZ       YYY       YYZ       YZZ       ZZZ
      1       N    7    0.0000    0.0000    0.2046    0.0000    0.0000    0.0000   -0.0000    0.2046    0.0000    0.6424
      2       N    7    0.0000    0.0000   -0.2046    0.0000   -0.0000   -0.0000   -0.0000   -0.2046    0.0000   -0.6424

  MBIS Radial Moments:
   Center  Symbol  Z      [a0^2]      [a0^3]      [a0^4]
      1       N    7   10.828017   21.619197   51.831686
      2       N    7   10.828017   21.619197   51.831686

  MBIS Valence Widths: [a0]
   Center  Symbol  Z     Width
      1       N    7    0.410098
      2       N    7    0.410098

*** tstop() called on Mac.lan at Sun Aug 10 17:06:07 2025
Module time:
	user time   =       3.94 seconds =       0.07 minutes
	system time =       1.94 seconds =       0.03 minutes
	total time  =          1 seconds =       0.02 minutes
Total time:
	user time   =      15.05 seconds =       0.25 minutes
	system time =       4.47 seconds =       0.07 minutes
	total time  =          2 seconds =       0.03 minutes

    Psi4 stopped on: Sunday, 10 August 2025 05:06PM
    Psi4 wall time for execution: 0:00:01.89

*** Psi4 exiting successfully. Buy a developer a beer!
