                               Psi4 1.9.1 release

  ==> Input File <==

--------------------------------------------------------------------------
molecule {
0 1
H           0.000000           0.000000           0.000000
H           0.000000           0.000000           0.745897
}

set {
basis              cc-pvtz
reference          uks
maxiter            500
DAMPING_PERCENTAGE 1
E_CONVERGENCE      1.0E-8
D_CONVERGENCE      1.0E-8
DIIS_MAX_VECS      400
MBIS_MAXITER       8000
guess              read
}

E, wfn = energy('b3lyp', restart_file='last_wfn', return_wfn=True)
properties('b3lyp','MBIS_CHARGES', wfn=wfn)
wfn.to_file('last_wfn')
--------------------------------------------------------------------------

    Molecular point group: d2h
  Charge       = 0
  Multiplicity = 1
  Basis Set: CC-PVTZ
    Blend: CC-PVTZ
  Basis Set: (CC-PVTZ AUX)
    Blend: CC-PVTZ-JKFIT
  @DF-UKS Final Energy:    -1.17999411011827
    Total Energy =                         -1.1799941101182707
 Dipole X            :          0.0000000            0.0000000            0.0000000
 Dipole Y            :          0.0000000            0.0000000            0.0000000
 Dipole Z            :          0.0000000            0.0000000            0.0000000
 Magnitude           :                                                    0.0000000
    Molecular point group: d2h

    Geometry (in Angstrom), charge = 0, multiplicity = 1:

       Center              X                  Y                   Z               Mass
    ------------   -----------------  -----------------  -----------------  -----------------
         H            0.000000000000     0.000000000000    -0.372948500000     1.007825032230
         H            0.000000000000     0.000000000000     0.372948500000     1.007825032230

  Charge       = 0
  Multiplicity = 1
  Basis Set: CC-PVTZ
    Blend: CC-PVTZ
  Basis Set: (CC-PVTZ AUX)
    Blend: CC-PVTZ-JKFIT

    Orbital Energies [Eh]
    ---------------------

    Alpha Occupied:

       1Ag    -0.433468

    Alpha Virtual:

       1B1u    0.057524     2Ag     0.195939     2B1u    0.469429
       1B2u    0.511348     1B3u    0.511348     3Ag     0.910078
       1B3g    0.936632     1B2g    0.936632     3B1u    1.366262
       4B1u    2.035765     4Ag     2.094991     5Ag     2.882553
       1B1g    2.882553     2B3u    3.078380     2B2u    3.078380
       6Ag     3.355014     2B2g    3.603151     2B3g    3.603151
       5B1u    3.790213     1Au     3.790213     3B2u    3.804896
       3B3u    3.804896     6B1u    4.336174     3B3g    5.375401
       3B2g    5.375401     7Ag     5.436227     7B1u    6.508047

    Beta Occupied:

       1Ag    -0.433468

    Beta Virtual:

       1B1u    0.057524     2Ag     0.195939     2B1u    0.469429
       1B2u    0.511348     1B3u    0.511348     3Ag     0.910078
       1B3g    0.936632     1B2g    0.936632     3B1u    1.366262
       4B1u    2.035765     4Ag     2.094991     5Ag     2.882553
       1B1g    2.882553     2B2u    3.078380     2B3u    3.078380
       6Ag     3.355014     2B2g    3.603151     2B3g    3.603151
       5B1u    3.790213     1Au     3.790213     3B2u    3.804896
       3B3u    3.804896     6B1u    4.336174     3B3g    5.375401
       3B2g    5.375401     7Ag     5.436227     7B1u    6.508047

    Final Occupation by Irrep:
             Ag   B1g   B2g   B3g    Au   B1u   B2u   B3u
    DOCC [     1,    0,    0,    0,    0,    0,    0,    0 ]
    SOCC [     0,    0,    0,    0,    0,    0,    0,    0 ]
    NA   [     1,    0,    0,    0,    0,    0,    0,    0 ]
    NB   [     1,    0,    0,    0,    0,    0,    0,    0 ]

  @DF-UKS Final Energy:    -1.17999411025716

   => Energetics <=

    Nuclear Repulsion Energy =              0.7094507829767381
    One-Electron Energy =                  -2.4975639636537545
    Two-Electron Energy =                   1.1807229371163019
    DFT Exchange-Correlation Energy =      -0.5726038666964430
    Empirical Dispersion Energy =           0.0000000000000000
    VV10 Nonlocal Energy =                  0.0000000000000000
    Total Energy =                         -1.1799941102571576

  UHF NO Occupations:
  HONO-0 :    1 Ag 2.0000000
  LUNO+0 :    2 Ag 0.0000000
  LUNO+1 :    3 Ag 0.0000000
  LUNO+2 :    4 Ag 0.0000000
  LUNO+3 :    5 Ag 0.0000000

Computation Completed

Properties will be evaluated at   0.000000,   0.000000,   0.000000 [a0]

Properties computed using the B3LYP density matrix

 Multipole Moments:

 ------------------------------------------------------------------------------------
     Multipole            Electronic (a.u.)      Nuclear  (a.u.)        Total (a.u.)
 ------------------------------------------------------------------------------------

 L = 1.  Multiply by 2.5417464519 to convert [e a0] to [Debye]
 Dipole X            :          0.0000000            0.0000000            0.0000000
 Dipole Y            :          0.0000000            0.0000000            0.0000000
 Dipole Z            :          0.0000000            0.0000000            0.0000000
 Magnitude           :                                                    0.0000000

 L = 2.  Multiply by 1.3450342976 to convert [e a0^2] to [Debye ang]
 Quadrupole XX       :         -1.5692188            0.0000000           -1.5692188
 Quadrupole XY       :          0.0000000            0.0000000            0.0000000
 Quadrupole XZ       :          0.0000000            0.0000000            0.0000000
 Quadrupole YY       :         -1.5692188            0.0000000           -1.5692188
 Quadrupole YZ       :          0.0000000            0.0000000            0.0000000
 Quadrupole ZZ       :         -2.1377804            0.9934030           -1.1443774
 Traceless XX        :          0.1895205           -0.3311343           -0.1416138
 Traceless YY        :          0.1895205           -0.3311343           -0.1416138
 Traceless ZZ        :         -0.3790411            0.6622687            0.2832276

 ------------------------------------------------------------------------------------
  ==> Computing MBIS Charges <==

  Electron Count from Grid (Expected Number):  2.00000 ( 2.00000)
  Difference: -0.00000

  MBIS Charges: (a.u.)
   Center  Symbol  Z      Pop.       Charge
      1       H    1    1.000000    0.000000
      2       H    1    1.000000    0.000000

  MBIS Dipoles: [e a0]
   Center  Symbol  Z        X           Y           Z
      1       H    1    0.000000   -0.000000   -0.086828
      2       H    1   -0.000000   -0.000000    0.086828

  MBIS Quadrupoles: [e a0^2]
   Center  Symbol  Z      XX        XY        XZ        YY        YZ        ZZ
      1       H    1   -0.7846   -0.0000    0.0000   -0.7846   -0.0000   -0.6946
      2       H    1   -0.7846    0.0000    0.0000   -0.7846    0.0000   -0.6946

  MBIS Octupoles: [e a0^3]
   Center  Symbol  Z      XXX       XXY       XXZ       XYY       XYZ       XZZ       YYY       YYZ       YZZ       ZZZ
      1       H    1    0.0000    0.0000   -0.0472    0.0000   -0.0000   -0.0000    0.0000   -0.0472    0.0000   -0.0652
      2       H    1    0.0000    0.0000    0.0472   -0.0000    0.0000   -0.0000    0.0000    0.0472   -0.0000    0.0652

  MBIS Radial Moments:
   Center  Symbol  Z      [a0^2]      [a0^3]      [a0^4]
      1       H    1    2.263796    5.015025   13.511262
      2       H    1    2.263796    5.015025   13.511262

  MBIS Valence Widths: [a0]
   Center  Symbol  Z     Width
      1       H    1    0.432213
      2       H    1    0.432213

*** tstop() called on Mac.lan at Sun Aug 10 16:59:09 2025
Module time:
	user time   =       0.56 seconds =       0.01 minutes
	system time =       1.37 seconds =       0.02 minutes
	total time  =          0 seconds =       0.00 minutes
Total time:
	user time   =       1.73 seconds =       0.03 minutes
	system time =       3.31 seconds =       0.06 minutes
	total time  =          1 seconds =       0.02 minutes

    Psi4 stopped on: Sunday, 10 August 2025 04:59PM
    Psi4 wall time for execution: 0:00:00.77

*** Psi4 exiting successfully. Buy a developer a beer!
