                               Psi4 1.9.1 release

  ==> Input File <==

--------------------------------------------------------------------------
molecule {
0 2
O           0.000000           0.000000           0.000000
H           0.000000           0.000000           1.193394
}

set {
basis              cc-pvtz
reference          uks
maxiter            500
DAMPING_PERCENTAGE 1
E_CONVERGENCE      1.0E-8
D_CONVERGENCE      1.0E-8
DIIS_MAX_VECS      400
MBIS_MAXITER       8000
guess              read
}

E, wfn = energy('b3lyp', restart_file='last_wfn', return_wfn=True)
properties('b3lyp','MBIS_CHARGES', wfn=wfn)
wfn.to_file('last_wfn')
--------------------------------------------------------------------------

    Molecular point group: c2v
  Charge       = 0
  Multiplicity = 2
  Basis Set: CC-PVTZ
    Blend: CC-PVTZ
  Basis Set: (CC-PVTZ AUX)
    Blend: CC-PVTZ-JKFIT
  @DF-UKS Final Energy:   -75.73768283727537
    Total Energy =                        -75.7376828372753579
 Dipole X            :          0.0000000            0.0000000            0.0000000
 Dipole Y            :          0.0000000            0.0000000            0.0000000
 Dipole Z            :         -0.3592916            1.0521163            0.6928247
 Magnitude           :                                                    0.6928247
    Molecular point group: c2v

    Geometry (in Angstrom), charge = 0, multiplicity = 2:

       Center              X                  Y                   Z               Mass
    ------------   -----------------  -----------------  -----------------  -----------------
         O            0.000000000000     0.000000000000    -0.070737561778    15.994914619570
         H            0.000000000000     0.000000000000     1.122656438222     1.007825032230

  Charge       = 0
  Multiplicity = 2
  Basis Set: CC-PVTZ
    Blend: CC-PVTZ
  Basis Set: (CC-PVTZ AUX)
    Blend: CC-PVTZ-JKFIT

    Orbital Energies [Eh]
    ---------------------

    Alpha Occupied:

       1A1   -19.209408     2A1    -0.975152     3A1    -0.445644
       1B1    -0.410199     1B2    -0.336886

    Alpha Virtual:

       4A1    -0.024842     5A1     0.281455     2B1     0.511720
       2B2     0.543195     6A1     0.547289     3B1     0.676000
       3B2     0.692071     7A1     0.894170     8A1     1.080498
       1A2     1.429073     9A1     1.429797     4B1     1.619168
       4B2     1.657088    10A1     2.061263    11A1     2.295825
       2A2     3.151156    12A1     3.151234     5B1     3.225602
       5B2     3.256287    13A1     3.358880     6B1     3.618900
       6B2     3.639839     7B1     3.785069     7B2     3.822951
      14A1     3.879638    15A1     4.783367     8B1     5.075796
       8B2     5.076051     3A2     5.160922    16A1     5.162688
       9B1     5.687095     9B2     5.735728    17A1     6.046866
      18A1     6.129205     4A2     6.129758    10B1     6.403974
      10B2     6.460271    19A1     6.821794    20A1     8.416359

    Beta Occupied:

       1A1   -19.183164     2A1    -0.898943     3A1    -0.423485
       1B2    -0.310752

    Beta Virtual:

       1B1    -0.161576     4A1    -0.016315     5A1     0.281743
       2B2     0.550390     6A1     0.558170     2B1     0.571819
       3B2     0.691505     3B1     0.696406     7A1     0.924176
       8A1     1.088532     1A2     1.481379     9A1     1.487409
       4B2     1.663623     4B1     1.670282    10A1     2.082055
      11A1     2.287114     2A2     3.147451    12A1     3.147764
       5B2     3.259132     5B1     3.270014    13A1     3.366726
       6B2     3.635325     6B1     3.640054     7B2     3.831669
       7B1     3.847043    14A1     3.885987    15A1     4.808036
       8B2     5.146083     8B1     5.149085     3A2     5.208038
      16A1     5.213208     9B2     5.746082     9B1     5.754737
      17A1     6.073411     4A2     6.222740    18A1     6.237186
      10B2     6.474297    10B1     6.493640    19A1     6.863462
      20A1     8.453129

    Final Occupation by Irrep:
             A1    A2    B1    B2
    DOCC [     3,    0,    0,    1 ]
    SOCC [     0,    0,    1,    0 ]
    NA   [     3,    0,    1,    1 ]
    NB   [     3,    0,    0,    1 ]

  @DF-UKS Final Energy:   -75.73768283700757

   => Energetics <=

    Nuclear Repulsion Energy =              3.5473763780947460
    One-Electron Energy =                -111.2529182565606760
    Two-Electron Energy =                  39.0937577266804297
    DFT Exchange-Correlation Energy =      -7.1258986852220563
    Empirical Dispersion Energy =           0.0000000000000000
    VV10 Nonlocal Energy =                  0.0000000000000000
    Total Energy =                        -75.7376828370075685

  UHF NO Occupations:
  HONO-2 :    2 A1 1.9994848
  HONO-1 :    3 A1 1.9986748
  HONO-0 :    1 B1 1.0000000
  LUNO+0 :    4 A1 0.0013252
  LUNO+1 :    5 A1 0.0005152
  LUNO+2 :    2 B2 0.0001679
  LUNO+3 :    6 A1 0.0000006

Computation Completed

Properties will be evaluated at   0.000000,   0.000000,   0.000000 [a0]

Properties computed using the B3LYP density matrix

 Multipole Moments:

 ------------------------------------------------------------------------------------
     Multipole            Electronic (a.u.)      Nuclear  (a.u.)        Total (a.u.)
 ------------------------------------------------------------------------------------

 L = 1.  Multiply by 2.5417464519 to convert [e a0] to [Debye]
 Dipole X            :          0.0000000            0.0000000            0.0000000
 Dipole Y            :          0.0000000            0.0000000            0.0000000
 Dipole Z            :         -0.3592916            1.0521163            0.6928247
 Magnitude           :                                                    0.6928247

 L = 2.  Multiply by 1.3450342976 to convert [e a0^2] to [Debye ang]
 Quadrupole XX       :         -4.1609861            0.0000000           -4.1609861
 Quadrupole XY       :          0.0000000            0.0000000            0.0000000
 Quadrupole XZ       :          0.0000000            0.0000000            0.0000000
 Quadrupole YY       :         -5.0595491            0.0000000           -5.0595491
 Quadrupole YZ       :          0.0000000            0.0000000            0.0000000
 Quadrupole ZZ       :         -7.5632054            4.6437695           -2.9194359
 Traceless XX        :          1.4335941           -1.5479232           -0.1143290
 Traceless YY        :          0.5350311           -1.5479232           -1.0128921
 Traceless ZZ        :         -1.9686252            3.0958463            1.1272211

 ------------------------------------------------------------------------------------
  ==> Computing MBIS Charges <==

  Electron Count from Grid (Expected Number):  9.00000 ( 9.00000)
  Difference:  0.00000

  MBIS Charges: (a.u.)
   Center  Symbol  Z      Pop.       Charge
      1       O    8    8.332308   -0.332308
      2       H    1    0.667693    0.332307

  MBIS Dipoles: [e a0]
   Center  Symbol  Z        X           Y           Z
      1       O    8   -0.000000   -0.000000   -0.104881
      2       H    1    0.000000   -0.000000    0.048290

  MBIS Quadrupoles: [e a0^2]
   Center  Symbol  Z      XX        XY        XZ        YY        YZ        ZZ
      1       O    8   -3.7330    0.0000    0.0000   -4.5899   -0.0000   -4.2217
      2       H    1   -0.4280   -0.0000    0.0000   -0.4697   -0.0000   -0.4204

  MBIS Octupoles: [e a0^3]
   Center  Symbol  Z      XXX       XXY       XXZ       XYY       XYZ       XZZ       YYY       YYZ       YZZ       ZZZ
      1       O    8   -0.0000   -0.0000   -0.1276    0.0000   -0.0000    0.0000   -0.0000   -0.1216    0.0000   -0.5221
      2       H    1    0.0000   -0.0000   -0.0004    0.0000   -0.0000    0.0000   -0.0000    0.0285   -0.0000    0.0562

  MBIS Radial Moments:
   Center  Symbol  Z      [a0^2]      [a0^3]      [a0^4]
      1       O    8   12.544497   24.250950   56.028246
      2       H    1    1.318128    2.653373    6.389591

  MBIS Valence Widths: [a0]
   Center  Symbol  Z     Width
      1       O    8    0.396981
      2       H    1    0.407209

*** tstop() called on Mac.lan at Sun Aug 10 17:11:34 2025
Module time:
	user time   =       2.90 seconds =       0.05 minutes
	system time =       1.59 seconds =       0.03 minutes
	total time  =          1 seconds =       0.02 minutes
Total time:
	user time   =      14.03 seconds =       0.23 minutes
	system time =       3.87 seconds =       0.06 minutes
	total time  =          2 seconds =       0.03 minutes

    Psi4 stopped on: Sunday, 10 August 2025 05:11PM
    Psi4 wall time for execution: 0:00:01.75

*** Psi4 exiting successfully. Buy a developer a beer!
