                               Psi4 1.9.1 release

  ==> Input File <==

--------------------------------------------------------------------------
molecule {
0 2
O           0.000000           0.000000           0.000000
N           0.000000           0.000000           0.834908
}

set {
basis              cc-pvtz
reference          uks
maxiter            500
DAMPING_PERCENTAGE 1
E_CONVERGENCE      1.0E-8
D_CONVERGENCE      1.0E-8
DIIS_MAX_VECS      400
MBIS_MAXITER       8000
guess              read
}

E, wfn = energy('b3lyp', restart_file='last_wfn', return_wfn=True)
properties('b3lyp','MBIS_CHARGES', wfn=wfn)
wfn.to_file('last_wfn')
--------------------------------------------------------------------------

    Molecular point group: c2v
  Charge       = 0
  Multiplicity = 2
  Basis Set: CC-PVTZ
    Blend: CC-PVTZ
  Basis Set: (CC-PVTZ AUX)
    Blend: CC-PVTZ-JKFIT
  @DF-UKS Final Energy:  -129.50056157781219
    Total Energy =                       -129.5005615778121921
 Dipole X            :          0.0000000            0.0000000            0.0000000
 Dipole Y            :          0.0000000            0.0000000            0.0000000
 Dipole Z            :         -0.3874942           -0.0031657           -0.3906599
 Magnitude           :                                                    0.3906599
    Molecular point group: c2v

    Geometry (in Angstrom), charge = 0, multiplicity = 2:

       Center              X                  Y                   Z               Mass
    ------------   -----------------  -----------------  -----------------  -----------------
         O            0.000000000000     0.000000000000    -0.389735413845    15.994914619570
         N            0.000000000000     0.000000000000     0.445172586155    14.003074004430

  Charge       = 0
  Multiplicity = 2
  Basis Set: CC-PVTZ
    Blend: CC-PVTZ
  Basis Set: (CC-PVTZ AUX)
    Blend: CC-PVTZ-JKFIT

    Orbital Energies [Eh]
    ---------------------

    Alpha Occupied:

       1A1   -19.252620     2A1   -14.384836     3A1    -1.519384
       1B1    -0.711655     1B2    -0.695385     4A1    -0.659357
       5A1    -0.500190     2B1    -0.047518

    Alpha Virtual:

       2B2     0.054612     6A1     0.236603     3B1     0.367276
       3B2     0.368978     7A1     0.415937     8A1     0.527325
       4B1     0.609106     4B2     0.624216     1A2     0.891250
       9A1     0.892778    10A1     1.140893    11A1     1.225120
       5B1     1.314741     5B2     1.318978     2A2     1.625024
      12A1     1.626640    13A1     1.985867     6B1     2.071860
       6B2     2.076155    14A1     2.649737     7B1     2.697201
       7B2     2.705041    15A1     3.229673     8B1     3.706925
       8B2     3.707177    16A1     3.744544     9B1     3.892355
       9B2     3.899271     3A2     3.917415    17A1     3.919006
      10B1     4.215302    10B2     4.217766     4A2     4.365768
      18A1     4.369205    19A1     4.685157    11B2     4.914391
      11B1     4.915224    12B1     5.173621    12B2     5.173748
      20A1     5.893911     5A2     6.114204    21A1     6.116069
       6A2     6.387965    22A1     6.389286    13B2     6.580996
      13B1     6.581292    23A1     6.911971    24A1     7.646706
      14B1     8.308015    14B2     8.309932    25A1     9.634178
      26A1    22.938367

    Beta Occupied:

       1A1   -19.242194     2A1   -14.373889     3A1    -1.505513
       1B2    -0.686652     1B1    -0.650155     4A1    -0.631840
       5A1    -0.466681

    Beta Virtual:

       2B2     0.067444     2B1     0.102546     6A1     0.241713
       3B2     0.372717     3B1     0.392892     7A1     0.426099
       8A1     0.539845     4B2     0.630760     4B1     0.651699
       9A1     0.913512     1A2     0.913727    10A1     1.159572
      11A1     1.234868     5B2     1.322754     5B1     1.351371
       2A2     1.654058    12A1     1.654340    13A1     1.997110
       6B2     2.080740     6B1     2.103433    14A1     2.669832
       7B2     2.713739     7B1     2.747708    15A1     3.245908
       8B2     3.738067     8B1     3.738108    16A1     3.759469
       9B2     3.906878     3A2     3.936113    17A1     3.936785
       9B1     3.938187    10B2     4.221795    10B1     4.254738
      18A1     4.411441     4A2     4.411932    19A1     4.700497
      11B2     4.918355    11B1     4.947403    12B2     5.201285
      12B1     5.201301    20A1     5.908498     5A2     6.151913
      21A1     6.152355     6A2     6.412081    22A1     6.412326
      13B2     6.584677    13B1     6.613398    23A1     6.921332
      24A1     7.658930    14B2     8.315566    14B1     8.347646
      25A1     9.654053    26A1    22.952618

    Final Occupation by Irrep:
             A1    A2    B1    B2
    DOCC [     5,    0,    1,    1 ]
    SOCC [     0,    0,    1,    0 ]
    NA   [     5,    0,    2,    1 ]
    NB   [     5,    0,    1,    1 ]

  @DF-UKS Final Energy:  -129.50056158037518

   => Energetics <=

    Nuclear Repulsion Energy =             35.4936397753045867
    One-Electron Energy =                -245.4661871526760137
    Two-Electron Energy =                  93.2826453305516736
    DFT Exchange-Correlation Energy =     -12.8106595335554108
    Empirical Dispersion Energy =           0.0000000000000000
    VV10 Nonlocal Energy =                  0.0000000000000000
    Total Energy =                       -129.5005615803751766

  UHF NO Occupations:
  HONO-2 :    1 B1 1.9997528
  HONO-1 :    5 A1 1.9997143
  HONO-0 :    2 B1 1.0000000
  LUNO+0 :    6 A1 0.0002857
  LUNO+1 :    3 B1 0.0002472
  LUNO+2 :    7 A1 0.0000863
  LUNO+3 :    2 B2 0.0000141

Computation Completed

Properties will be evaluated at   0.000000,   0.000000,   0.000000 [a0]

Properties computed using the B3LYP density matrix

 Multipole Moments:

 ------------------------------------------------------------------------------------
     Multipole            Electronic (a.u.)      Nuclear  (a.u.)        Total (a.u.)
 ------------------------------------------------------------------------------------

 L = 1.  Multiply by 2.5417464519 to convert [e a0] to [Debye]
 Dipole X            :          0.0000000            0.0000000            0.0000000
 Dipole Y            :          0.0000000            0.0000000            0.0000000
 Dipole Z            :         -0.3874942           -0.0031657           -0.3906599
 Magnitude           :                                                    0.3906599

 L = 2.  Multiply by 1.3450342976 to convert [e a0^2] to [Debye ang]
 Quadrupole XX       :         -7.6290476            0.0000000           -7.6290476
 Quadrupole XY       :          0.0000000            0.0000000            0.0000000
 Quadrupole XZ       :          0.0000000            0.0000000            0.0000000
 Quadrupole YY       :         -6.5028102            0.0000000           -6.5028102
 Quadrupole YZ       :          0.0000000            0.0000000            0.0000000
 Quadrupole ZZ       :        -17.8218534            9.2933390           -8.5285144
 Traceless XX        :          3.0221895           -3.0977797           -0.0755902
 Traceless YY        :          4.1484269           -3.0977797            1.0506472
 Traceless ZZ        :         -7.1706163            6.1955593           -0.9750570

 ------------------------------------------------------------------------------------
  ==> Computing MBIS Charges <==

  Electron Count from Grid (Expected Number): 15.00000 (15.00000)
  Difference: -0.00000

  MBIS Charges: (a.u.)
   Center  Symbol  Z      Pop.       Charge
      1       O    8    7.830968    0.169032
      2       N    7    7.169031   -0.169031

  MBIS Dipoles: [e a0]
   Center  Symbol  Z        X           Y           Z
      1       O    8    0.000000    0.000000    0.115642
      2       N    7    0.000000    0.000000   -0.239613

  MBIS Quadrupoles: [e a0^2]
   Center  Symbol  Z      XX        XY        XZ        YY        YZ        ZZ
      1       O    8   -3.1840   -0.0000    0.0000   -2.8898    0.0000   -3.4534
      2       N    7   -4.4451   -0.0000   -0.0000   -3.6130    0.0000   -4.4737

  MBIS Octupoles: [e a0^3]
   Center  Symbol  Z      XXX       XXY       XXZ       XYY       XYZ       XZZ       YYY       YYZ       YZZ       ZZZ
      1       O    8    0.0000   -0.0000    0.2285    0.0000    0.0000   -0.0000   -0.0000    0.1556   -0.0000    0.3114
      2       N    7    0.0000   -0.0000   -0.8151   -0.0000   -0.0000    0.0000   -0.0000   -0.2819    0.0000   -0.3569

  MBIS Radial Moments:
   Center  Symbol  Z      [a0^2]      [a0^3]      [a0^4]
      1       O    8    9.527216   16.692509   35.376916
      2       N    7   12.531728   26.925585   69.508121

  MBIS Valence Widths: [a0]
   Center  Symbol  Z     Width
      1       O    8    0.357138
      2       N    7    0.434591

*** tstop() called on Mac.lan at Sun Aug 10 17:20:14 2025
Module time:
	user time   =       4.07 seconds =       0.07 minutes
	system time =       2.49 seconds =       0.04 minutes
	total time  =          1 seconds =       0.02 minutes
Total time:
	user time   =      16.48 seconds =       0.27 minutes
	system time =       4.66 seconds =       0.08 minutes
	total time  =          2 seconds =       0.03 minutes

    Psi4 stopped on: Sunday, 10 August 2025 05:20PM
    Psi4 wall time for execution: 0:00:02.05

*** Psi4 exiting successfully. Buy a developer a beer!
