                               Psi4 1.9.1 release

  ==> Input File <==

--------------------------------------------------------------------------
molecule {
0 3
O           0.000000           0.000000           0.000000
O           0.000000           0.000000           1.764445
}

set {
basis              cc-pvtz
reference          uks
maxiter            500
DAMPING_PERCENTAGE 1
E_CONVERGENCE      1.0E-8
D_CONVERGENCE      1.0E-8
DIIS_MAX_VECS      400
MBIS_MAXITER       8000
guess              read
}

E, wfn = energy('b3lyp', restart_file='last_wfn', return_wfn=True)
properties('b3lyp','MBIS_CHARGES', wfn=wfn)
wfn.to_file('last_wfn')
--------------------------------------------------------------------------

    Molecular point group: d2h
  Charge       = 0
  Multiplicity = 3
  Basis Set: CC-PVTZ
    Blend: CC-PVTZ
  Basis Set: (CC-PVTZ AUX)
    Blend: CC-PVTZ-JKFIT
  @DF-UKS Final Energy:  -150.22464393989134
    Total Energy =                       -150.2246439398913367
 Dipole X            :          0.0000000            0.0000000            0.0000000
 Dipole Y            :          0.0000000            0.0000000            0.0000000
 Dipole Z            :          0.0000000            0.0000000            0.0000000
 Magnitude           :                                                    0.0000000
    Molecular point group: d2h

    Geometry (in Angstrom), charge = 0, multiplicity = 3:

       Center              X                  Y                   Z               Mass
    ------------   -----------------  -----------------  -----------------  -----------------
         O            0.000000000000     0.000000000000    -0.882222500000    15.994914619570
         O            0.000000000000     0.000000000000     0.882222500000    15.994914619570

  Charge       = 0
  Multiplicity = 3
  Basis Set: CC-PVTZ
    Blend: CC-PVTZ
  Basis Set: (CC-PVTZ AUX)
    Blend: CC-PVTZ-JKFIT

    Orbital Energies [Eh]
    ---------------------

    Alpha Occupied:

       1Ag   -19.323393     1B1u  -19.323365     2Ag    -1.074289
       2B1u   -0.963549     3Ag    -0.475599     1B3u   -0.471815
       1B2u   -0.471815     1B3g   -0.409179     1B2g   -0.409179

    Alpha Virtual:

       3B1u   -0.197951     2B2u    0.489876     2B3u    0.489876
       4B1u    0.491705     4Ag     0.595212     2B3g    0.600117
       2B2g    0.600117     5Ag     0.696234     5B1u    1.057667
       3B2u    1.200846     3B3u    1.200846     1B1g    1.336287
       6Ag     1.336287     7Ag     1.356950     1Au     1.446224
       6B1u    1.446224     3B2g    1.740936     3B3g    1.740936
       7B1u    2.255693     8Ag     3.385703     4B2u    3.432317
       4B3u    3.432317     4B2g    3.507106     4B3g    3.507106
       8B1u    3.738223     9Ag     4.825322     5B2u    4.828975
       5B3u    4.828975    10Ag     4.961088     2B1g    4.961088
       6B2u    5.007721     6B3u    5.007721     5B3g    5.015255
       5B2g    5.015255     2Au     5.055728     9B1u    5.055730
       6B3g    5.212513     6B2g    5.212513    10B1u    5.414305
       7B3u    5.965152     7B2u    5.965152    11Ag     5.991887
       3B1g    5.991888    11B1u    6.073267     3Au     6.073271
      12Ag     6.168657     7B2g    6.381180     7B3g    6.381180
      12B1u    6.923701    13Ag     7.057236    13B1u    7.847115

    Beta Occupied:

       1Ag   -19.294215     1B1u  -19.294148     2Ag    -1.001012
       2B1u   -0.875513     3Ag    -0.448647     1B3u   -0.358175
       1B2u   -0.358175

    Beta Virtual:

       1B3g   -0.227658     1B2g   -0.227658     3B1u   -0.163831
       4B1u    0.505049     2B2u    0.532376     2B3u    0.532376
       4Ag     0.611883     2B3g    0.637988     2B2g    0.637988
       5Ag     0.717039     5B1u    1.087259     3B2u    1.224371
       3B3u    1.224371     6Ag     1.380832     1B1g    1.386216
       7Ag     1.386217     1Au     1.502047     6B1u    1.502049
       3B3g    1.774298     3B2g    1.774298     7B1u    2.281483
       8Ag     3.404077     4B2u    3.505571     4B3u    3.505571
       4B2g    3.581580     4B3g    3.581580     8B1u    3.765263
       9Ag     4.859715     5B2u    4.865338     5B3u    4.865338
      10Ag     5.010308     2B1g    5.010310     6B2u    5.080105
       6B3u    5.080105     5B3g    5.087863     5B2g    5.087863
       2Au     5.105839     9B1u    5.105839     6B2g    5.250386
       6B3g    5.250386    10B1u    5.446035     7B3u    6.027030
       7B2u    6.027030    11Ag     6.098504     3B1g    6.098505
      11B1u    6.179101     3Au     6.179105    12Ag     6.199194
       7B2g    6.439428     7B3g    6.439428    12B1u    6.946946
      13Ag     7.117758    13B1u    7.906379

    Final Occupation by Irrep:
             Ag   B1g   B2g   B3g    Au   B1u   B2u   B3u
    DOCC [     3,    0,    0,    0,    0,    2,    1,    1 ]
    SOCC [     0,    0,    1,    1,    0,    0,    0,    0 ]
    NA   [     3,    0,    1,    1,    0,    2,    1,    1 ]
    NB   [     3,    0,    0,    0,    0,    2,    1,    1 ]

  @DF-UKS Final Energy:  -150.22464393969446

   => Energetics <=

    Nuclear Repulsion Energy =             19.1943310689083582
    One-Electron Energy =                -244.5332956219980929
    Two-Electron Energy =                  88.6757554873947242
    DFT Exchange-Correlation Energy =     -13.5614348739994330
    Empirical Dispersion Energy =           0.0000000000000000
    VV10 Nonlocal Energy =                  0.0000000000000000
    Total Energy =                       -150.2246439396944595

  UHF NO Occupations:
  HONO-2 :    1B2u 1.9975698
  HONO-1 :    1B2g 1.0000000
  HONO-0 :    1B3g 1.0000000
  LUNO+0 :    2B3u 0.0024302
  LUNO+1 :    2B2u 0.0024302
  LUNO+2 :    3B1u 0.0004280
  LUNO+3 :    4 Ag 0.0003386

Computation Completed

Properties will be evaluated at   0.000000,   0.000000,   0.000000 [a0]

Properties computed using the B3LYP density matrix

 Multipole Moments:

 ------------------------------------------------------------------------------------
     Multipole            Electronic (a.u.)      Nuclear  (a.u.)        Total (a.u.)
 ------------------------------------------------------------------------------------

 L = 1.  Multiply by 2.5417464519 to convert [e a0] to [Debye]
 Dipole X            :          0.0000000            0.0000000            0.0000000
 Dipole Y            :          0.0000000            0.0000000            0.0000000
 Dipole Z            :          0.0000000            0.0000000            0.0000000
 Magnitude           :                                                    0.0000000

 L = 2.  Multiply by 1.3450342976 to convert [e a0^2] to [Debye ang]
 Quadrupole XX       :         -7.8278199            0.0000000           -7.8278199
 Quadrupole XY       :          0.0000000            0.0000000            0.0000000
 Quadrupole XZ       :          0.0000000            0.0000000            0.0000000
 Quadrupole YY       :         -7.8278199            0.0000000           -7.8278199
 Quadrupole YZ       :          0.0000000            0.0000000            0.0000000
 Quadrupole ZZ       :        -51.4047283           44.4707011           -6.9340272
 Traceless XX        :         14.5256361          -14.8235670           -0.2979309
 Traceless YY        :         14.5256361          -14.8235670           -0.2979309
 Traceless ZZ        :        -29.0512723           29.6471341            0.5958618

 ------------------------------------------------------------------------------------
  ==> Computing MBIS Charges <==

  Electron Count from Grid (Expected Number): 16.00000 (16.00000)
  Difference: -0.00000

  MBIS Charges: (a.u.)
   Center  Symbol  Z      Pop.       Charge
      1       O    8    8.000000    0.000000
      2       O    8    8.000000    0.000000

  MBIS Dipoles: [e a0]
   Center  Symbol  Z        X           Y           Z
      1       O    8   -0.000000   -0.000000   -0.062724
      2       O    8    0.000000   -0.000000    0.062724

  MBIS Quadrupoles: [e a0^2]
   Center  Symbol  Z      XX        XY        XZ        YY        YZ        ZZ
      1       O    8   -3.9139    0.0000   -0.0000   -3.9139   -0.0000   -3.6762
      2       O    8   -3.9139   -0.0000    0.0000   -3.9139    0.0000   -3.6762

  MBIS Octupoles: [e a0^3]
   Center  Symbol  Z      XXX       XXY       XXZ       XYY       XYZ       XZZ       YYY       YYZ       YZZ       ZZZ
      1       O    8   -0.0000   -0.0000   -0.1237    0.0000   -0.0000   -0.0000    0.0000   -0.1237   -0.0000   -0.4644
      2       O    8   -0.0000   -0.0000    0.1237    0.0000    0.0000   -0.0000   -0.0000    0.1237   -0.0000    0.4644

  MBIS Radial Moments:
   Center  Symbol  Z      [a0^2]      [a0^3]      [a0^4]
      1       O    8   11.503974   21.922035   50.074064
      2       O    8   11.503974   21.922035   50.074064

  MBIS Valence Widths: [a0]
   Center  Symbol  Z     Width
      1       O    8    0.389423
      2       O    8    0.389423

*** tstop() called on Mac.lan at Sun Aug 10 17:02:33 2025
Module time:
	user time   =       4.01 seconds =       0.07 minutes
	system time =       2.01 seconds =       0.03 minutes
	total time  =          1 seconds =       0.02 minutes
Total time:
	user time   =      16.20 seconds =       0.27 minutes
	system time =       3.98 seconds =       0.07 minutes
	total time  =          2 seconds =       0.03 minutes

    Psi4 stopped on: Sunday, 10 August 2025 05:02PM
    Psi4 wall time for execution: 0:00:01.99

*** Psi4 exiting successfully. Buy a developer a beer!
