                               Psi4 1.9.1 release

  ==> Input File <==

--------------------------------------------------------------------------
molecule {
0 2
N           0.000000           0.000000           0.000000
C           0.000000           0.000000           0.932599
}

set {
basis              cc-pvtz
reference          uks
maxiter            500
DAMPING_PERCENTAGE 1
E_CONVERGENCE      1.0E-8
D_CONVERGENCE      1.0E-8
DIIS_MAX_VECS      400
MBIS_MAXITER       8000
guess              read
}

E, wfn = energy('b3lyp', restart_file='last_wfn', return_wfn=True)
properties('b3lyp','MBIS_CHARGES', wfn=wfn)
wfn.to_file('last_wfn')
--------------------------------------------------------------------------

    Molecular point group: c2v
  Charge       = 0
  Multiplicity = 2
  Basis Set: CC-PVTZ
    Blend: CC-PVTZ
  Basis Set: (CC-PVTZ AUX)
    Blend: CC-PVTZ-JKFIT
  @DF-UKS Final Energy:   -92.56029023403850
    Total Energy =                        -92.5602902340385043
 Dipole X            :          0.0000000            0.0000000            0.0000000
 Dipole Y            :          0.0000000            0.0000000            0.0000000
 Dipole Z            :          0.7195979            0.0012500            0.7208479
 Magnitude           :                                                    0.7208479
    Molecular point group: c2v

    Geometry (in Angstrom), charge = 0, multiplicity = 2:

       Center              X                  Y                   Z               Mass
    ------------   -----------------  -----------------  -----------------  -----------------
         N            0.000000000000     0.000000000000    -0.430379423529    14.003074004430
         C            0.000000000000     0.000000000000     0.502219576471    12.000000000000

  Charge       = 0
  Multiplicity = 2
  Basis Set: CC-PVTZ
    Blend: CC-PVTZ
  Basis Set: (CC-PVTZ AUX)
    Blend: CC-PVTZ-JKFIT

    Orbital Energies [Eh]
    ---------------------

    Alpha Occupied:

       1A1   -14.305293     2A1   -10.230400     3A1    -1.029964
       4A1    -0.463016     1B1    -0.456916     1B2    -0.456916
       5A1    -0.391677

    Alpha Virtual:

       2B2     0.076102     2B1     0.076102     6A1     0.176124
       7A1     0.248065     3B2     0.275171     3B1     0.275171
       8A1     0.454112     4B2     0.534601     4B1     0.534601
       9A1     0.615897     1A2     0.615897    10A1     0.786220
       5B2     0.914872     5B1     0.914872    11A1     0.988919
      12A1     1.234734     2A2     1.234734    13A1     1.524239
       6B2     1.575929     6B1     1.575929     7B1     1.887849
       7B2     1.887849    14A1     2.011829    15A1     2.340072
       8B2     2.600605     8B1     2.600605    16A1     2.798023
       3A2     2.798024    17A1     2.805107     9B2     2.855964
       9B1     2.855964     4A2     2.928831    18A1     2.928831
      10B2     3.172890    10B1     3.172890    19A1     3.258082
      11B1     3.566227    11B2     3.566227    12B1     4.039566
      12B2     4.039566    20A1     4.494773    21A1     4.544026
       5A2     4.544027    22A1     4.921356     6A2     4.921356
      13B1     4.965245    13B2     4.965245    23A1     5.420457
      24A1     5.698577    14B1     6.163127    14B2     6.163127
      25A1     7.500298    26A1    16.185342

    Beta Occupied:

       1A1   -14.302906     2A1   -10.211637     3A1    -1.011335
       1B1    -0.445842     1B2    -0.445842     4A1    -0.388255

    Beta Virtual:

       5A1    -0.241795     2B2     0.098673     2B1     0.098673
       6A1     0.183012     3B2     0.288169     3B1     0.288169
       7A1     0.293676     8A1     0.465778     4B2     0.541473
       4B1     0.541473     9A1     0.629278     1A2     0.629278
      10A1     0.833328     5B2     0.943559     5B1     0.943559
      11A1     0.996021    12A1     1.237639     2A2     1.237639
      13A1     1.571636     6B2     1.585540     6B1     1.585540
       7B1     1.909092     7B2     1.909092    14A1     2.037475
      15A1     2.397120     8B2     2.620539     8B1     2.620539
      16A1     2.808137     3A2     2.808138    17A1     2.847516
       9B2     2.940235     9B1     2.940235     4A2     2.990879
      18A1     2.990880    10B2     3.178732    10B1     3.178732
      19A1     3.343067    11B1     3.599182    11B2     3.599182
      12B1     4.036974    12B2     4.036974    20A1     4.517074
      21A1     4.538412     5A2     4.538413    22A1     4.930621
       6A2     4.930621    13B1     4.975926    13B2     4.975926
      23A1     5.438893    24A1     5.732249    14B1     6.191337
      14B2     6.191337    25A1     7.513544    26A1    16.212853

    Final Occupation by Irrep:
             A1    A2    B1    B2
    DOCC [     4,    0,    1,    1 ]
    SOCC [     1,    0,    0,    0 ]
    NA   [     5,    0,    1,    1 ]
    NB   [     4,    0,    1,    1 ]

  @DF-UKS Final Energy:   -92.56029023528892

   => Energetics <=

    Nuclear Repulsion Energy =             23.8317249408802745
    One-Electron Energy =                -171.3792891302537100
    Two-Electron Energy =                  65.0866660444428646
    DFT Exchange-Correlation Energy =     -10.0993920903583305
    Empirical Dispersion Energy =           0.0000000000000000
    VV10 Nonlocal Energy =                  0.0000000000000000
    Total Energy =                        -92.5602902352889174

  UHF NO Occupations:
  HONO-2 :    1 B1 1.9988732
  HONO-1 :    1 B2 1.9988732
  HONO-0 :    5 A1 1.0000000
  LUNO+0 :    2 B2 0.0011268
  LUNO+1 :    2 B1 0.0011268
  LUNO+2 :    6 A1 0.0004200
  LUNO+3 :    7 A1 0.0000432

Computation Completed

Properties will be evaluated at   0.000000,   0.000000,   0.000000 [a0]

Properties computed using the B3LYP density matrix

 Multipole Moments:

 ------------------------------------------------------------------------------------
     Multipole            Electronic (a.u.)      Nuclear  (a.u.)        Total (a.u.)
 ------------------------------------------------------------------------------------

 L = 1.  Multiply by 2.5417464519 to convert [e a0] to [Debye]
 Dipole X            :          0.0000000            0.0000000            0.0000000
 Dipole Y            :          0.0000000            0.0000000            0.0000000
 Dipole Z            :          0.7195979            0.0012500            0.7208479
 Magnitude           :                                                    0.7208479

 L = 2.  Multiply by 1.3450342976 to convert [e a0^2] to [Debye ang]
 Quadrupole XX       :         -7.4491411            0.0000000           -7.4491411
 Quadrupole XY       :          0.0000000            0.0000000            0.0000000
 Quadrupole XZ       :          0.0000000            0.0000000            0.0000000
 Quadrupole YY       :         -7.4491411            0.0000000           -7.4491411
 Quadrupole YZ       :          0.0000000            0.0000000            0.0000000
 Quadrupole ZZ       :        -17.7769671           10.0344499           -7.7425172
 Traceless XX        :          3.4426087           -3.3448166            0.0977920
 Traceless YY        :          3.4426087           -3.3448166            0.0977920
 Traceless ZZ        :         -6.8852173            6.6896333           -0.1955841

 ------------------------------------------------------------------------------------
  ==> Computing MBIS Charges <==

  Electron Count from Grid (Expected Number): 13.00000 (13.00000)
  Difference: -0.00000

  MBIS Charges: (a.u.)
   Center  Symbol  Z      Pop.       Charge
      1       N    7    7.408866   -0.408866
      2       C    6    5.591133    0.408867

  MBIS Dipoles: [e a0]
   Center  Symbol  Z        X           Y           Z
      1       N    7   -0.000000   -0.000000   -0.102228
      2       C    6   -0.000000    0.000000    0.102507

  MBIS Quadrupoles: [e a0^2]
   Center  Symbol  Z      XX        XY        XZ        YY        YZ        ZZ
      1       N    7   -4.1165    0.0000   -0.0000   -4.1165   -0.0000   -4.6321
      2       C    6   -3.3326    0.0000   -0.0000   -3.3326    0.0000   -3.5691

  MBIS Octupoles: [e a0^3]
   Center  Symbol  Z      XXX       XXY       XXZ       XYY       XYZ       XZZ       YYY       YYZ       YZZ       ZZZ
      1       N    7   -0.0000   -0.0000   -0.0599   -0.0000    0.0000   -0.0000   -0.0000   -0.0599    0.0000    0.2031
      2       C    6   -0.0000   -0.0000   -0.0560   -0.0000    0.0000   -0.0000    0.0000   -0.0560    0.0000   -0.2323

  MBIS Radial Moments:
   Center  Symbol  Z      [a0^2]      [a0^3]      [a0^4]
      1       N    7   12.865083   26.938649   67.685835
      2       C    6   10.234395   23.032795   62.381032

  MBIS Valence Widths: [a0]
   Center  Symbol  Z     Width
      1       N    7    0.432532
      2       C    6    0.466134

*** tstop() called on Mac.lan at Sun Aug 10 17:13:10 2025
Module time:
	user time   =       3.76 seconds =       0.06 minutes
	system time =       2.73 seconds =       0.05 minutes
	total time  =          0 seconds =       0.00 minutes
Total time:
	user time   =      18.37 seconds =       0.31 minutes
	system time =       5.37 seconds =       0.09 minutes
	total time  =          2 seconds =       0.03 minutes

    Psi4 stopped on: Sunday, 10 August 2025 05:13PM
    Psi4 wall time for execution: 0:00:02.30

*** Psi4 exiting successfully. Buy a developer a beer!
