                               Psi4 1.9.1 release

  ==> Input File <==

--------------------------------------------------------------------------
molecule {
0 1
O           0.000000           0.000000           0.000000
C           0.000000           0.000000           0.923886
}

set {
basis              cc-pvtz
reference          uks
maxiter            500
DAMPING_PERCENTAGE 1
E_CONVERGENCE      1.0E-8
D_CONVERGENCE      1.0E-8
DIIS_MAX_VECS      400
MBIS_MAXITER       8000
guess              read
}

E, wfn = energy('b3lyp', restart_file='last_wfn', return_wfn=True)
properties('b3lyp','MBIS_CHARGES', wfn=wfn)
wfn.to_file('last_wfn')
--------------------------------------------------------------------------

    Molecular point group: c2v
  Charge       = 0
  Multiplicity = 1
  Basis Set: CC-PVTZ
    Blend: CC-PVTZ
  Basis Set: (CC-PVTZ AUX)
    Blend: CC-PVTZ-JKFIT
  @DF-UKS Final Energy:  -113.20350313277147
    Total Energy =                       -113.2035031327714734
 Dipole X            :          0.0000000            0.0000000            0.0000000
 Dipole Y            :          0.0000000            0.0000000            0.0000000
 Dipole Z            :         -0.3077690           -0.0019029           -0.3096719
 Magnitude           :                                                    0.3096719
    Molecular point group: c2v

    Geometry (in Angstrom), charge = 0, multiplicity = 1:

       Center              X                  Y                   Z               Mass
    ------------   -----------------  -----------------  -----------------  -----------------
         O            0.000000000000     0.000000000000    -0.396023068856    15.994914619570
         C            0.000000000000     0.000000000000     0.527862931144    12.000000000000

  Charge       = 0
  Multiplicity = 1
  Basis Set: CC-PVTZ
    Blend: CC-PVTZ
  Basis Set: (CC-PVTZ AUX)
    Blend: CC-PVTZ-JKFIT

    Orbital Energies [Eh]
    ---------------------

    Alpha Occupied:

       1A1   -19.220480     2A1   -10.219494     3A1    -1.281195
       4A1    -0.583366     1B1    -0.565913     1B2    -0.565913
       5A1    -0.359973

    Alpha Virtual:

       2B2     0.053222     2B1     0.053222     6A1     0.164182
       3B2     0.290327     3B1     0.290327     7A1     0.305084
       8A1     0.535276     4B2     0.605342     4B1     0.605342
       1A2     0.633326     9A1     0.633326    10A1     0.796042
       5B1     0.945362     5B2     0.945362    11A1     1.186756
       2A2     1.551692    12A1     1.551692    13A1     1.668119
       6B1     1.830598     6B2     1.830598    14A1     1.921894
       7B2     2.056591     7B1     2.056591     8B1     2.634379
       8B2     2.634379    15A1     2.659701    16A1     2.890620
       3A2     2.890620     4A2     3.000149    17A1     3.000149
       9B1     3.007928     9B2     3.007928    18A1     3.084018
      10B2     3.478010    10B1     3.478010    19A1     3.719463
      11B1     4.238525    11B2     4.238525    12B2     5.113496
      12B1     5.113496    20A1     5.189820     5A2     5.829732
      21A1     5.829732    22A1     6.241968     6A2     6.250191
      23A1     6.250197    13B2     6.539840    13B1     6.539840
      24A1     6.949734    14B1     6.955616    14B2     6.955616
      25A1     8.458120    26A1    15.088299

    Beta Occupied:

       1A1   -19.220480     2A1   -10.219494     3A1    -1.281195
       4A1    -0.583366     1B1    -0.565913     1B2    -0.565913
       5A1    -0.359973

    Beta Virtual:

       2B2     0.053222     2B1     0.053222     6A1     0.164182
       3B2     0.290327     3B1     0.290327     7A1     0.305084
       8A1     0.535276     4B2     0.605342     4B1     0.605342
       1A2     0.633326     9A1     0.633326    10A1     0.796042
       5B1     0.945362     5B2     0.945362    11A1     1.186756
       2A2     1.551692    12A1     1.551692    13A1     1.668119
       6B1     1.830598     6B2     1.830598    14A1     1.921894
       7B2     2.056591     7B1     2.056591     8B1     2.634379
       8B2     2.634379    15A1     2.659701    16A1     2.890620
       3A2     2.890620     4A2     3.000149    17A1     3.000149
       9B1     3.007928     9B2     3.007928    18A1     3.084018
      10B2     3.478010    10B1     3.478010    19A1     3.719463
      11B1     4.238525    11B2     4.238525    12B2     5.113496
      12B1     5.113496    20A1     5.189820     5A2     5.829732
      21A1     5.829732    22A1     6.241968     6A2     6.250191
      23A1     6.250197    13B2     6.539840    13B1     6.539840
      24A1     6.949734    14B1     6.955616    14B2     6.955616
      25A1     8.458120    26A1    15.088299

    Final Occupation by Irrep:
             A1    A2    B1    B2
    DOCC [     5,    0,    1,    1 ]
    SOCC [     0,    0,    0,    0 ]
    NA   [     5,    0,    1,    1 ]
    NB   [     5,    0,    1,    1 ]

  @DF-UKS Final Energy:  -113.20350313305528

   => Energetics <=

    Nuclear Repulsion Energy =             27.4931172375812629
    One-Electron Energy =                -207.5664527671427209
    Two-Electron Energy =                  78.3280811899686853
    DFT Exchange-Correlation Energy =     -11.4582487934625021
    Empirical Dispersion Energy =           0.0000000000000000
    VV10 Nonlocal Energy =                  0.0000000000000000
    Total Energy =                       -113.2035031330552783

  UHF NO Occupations:
  HONO-2 :    1 B2 2.0000000
  HONO-1 :    4 A1 2.0000000
  HONO-0 :    5 A1 2.0000000
  LUNO+0 :    6 A1 0.0000000
  LUNO+1 :    7 A1 0.0000000
  LUNO+2 :    8 A1 0.0000000
  LUNO+3 :    9 A1 0.0000000

Computation Completed

Properties will be evaluated at   0.000000,   0.000000,   0.000000 [a0]

Properties computed using the B3LYP density matrix

 Multipole Moments:

 ------------------------------------------------------------------------------------
     Multipole            Electronic (a.u.)      Nuclear  (a.u.)        Total (a.u.)
 ------------------------------------------------------------------------------------

 L = 1.  Multiply by 2.5417464519 to convert [e a0] to [Debye]
 Dipole X            :          0.0000000            0.0000000            0.0000000
 Dipole Y            :          0.0000000            0.0000000            0.0000000
 Dipole Z            :         -0.3077690           -0.0019029           -0.3096719
 Magnitude           :                                                    0.3096719

 L = 2.  Multiply by 1.3450342976 to convert [e a0^2] to [Debye ang]
 Quadrupole XX       :         -7.1785554            0.0000000           -7.1785554
 Quadrupole XY       :          0.0000000            0.0000000            0.0000000
 Quadrupole XZ       :          0.0000000            0.0000000            0.0000000
 Quadrupole YY       :         -7.1785554            0.0000000           -7.1785554
 Quadrupole YZ       :          0.0000000            0.0000000            0.0000000
 Quadrupole ZZ       :        -19.4017929           10.4507563           -8.9510366
 Traceless XX        :          4.0744125           -3.4835854            0.5908271
 Traceless YY        :          4.0744125           -3.4835854            0.5908271
 Traceless ZZ        :         -8.1488250            6.9671708           -1.1816541

 ------------------------------------------------------------------------------------
  ==> Computing MBIS Charges <==

  Electron Count from Grid (Expected Number): 14.00000 (14.00000)
  Difference: -0.00000

  MBIS Charges: (a.u.)
   Center  Symbol  Z      Pop.       Charge
      1       O    8    8.008523   -0.008523
      2       C    6    5.991476    0.008524

  MBIS Dipoles: [e a0]
   Center  Symbol  Z        X           Y           Z
      1       O    8    0.000000    0.000000   -0.023898
      2       C    6    0.000000    0.000000   -0.300655

  MBIS Quadrupoles: [e a0^2]
   Center  Symbol  Z      XX        XY        XZ        YY        YZ        ZZ
      1       O    8   -3.2370    0.0000   -0.0000   -3.2370    0.0000   -3.5662
      2       C    6   -3.9415    0.0000   -0.0000   -3.9415    0.0000   -4.8245

  MBIS Octupoles: [e a0^3]
   Center  Symbol  Z      XXX       XXY       XXZ       XYY       XYZ       XZZ       YYY       YYZ       YZZ       ZZZ
      1       O    8   -0.0000   -0.0000    0.0508   -0.0000    0.0000    0.0000   -0.0000    0.0508   -0.0000    0.1278
      2       C    6   -0.0000   -0.0000   -0.4304   -0.0000    0.0000   -0.0000    0.0000   -0.4304    0.0000   -1.1974

  MBIS Radial Moments:
   Center  Symbol  Z      [a0^2]      [a0^3]      [a0^4]
      1       O    8   10.040164   17.623264   37.182820
      2       C    6   12.707643   30.197811   85.196967

  MBIS Valence Widths: [a0]
   Center  Symbol  Z     Width
      1       O    8    0.362713
      2       C    6    0.497235

*** tstop() called on Mac.lan at Sun Aug 10 17:16:57 2025
Module time:
	user time   =       3.70 seconds =       0.06 minutes
	system time =       2.14 seconds =       0.04 minutes
	total time  =          1 seconds =       0.02 minutes
Total time:
	user time   =      16.52 seconds =       0.28 minutes
	system time =       4.02 seconds =       0.07 minutes
	total time  =          2 seconds =       0.03 minutes

    Psi4 stopped on: Sunday, 10 August 2025 05:16PM
    Psi4 wall time for execution: 0:00:01.99

*** Psi4 exiting successfully. Buy a developer a beer!
