                               Psi4 1.9.1 release

  ==> Input File <==

--------------------------------------------------------------------------
molecule {
0 2
O           0.000000           0.000000           0.000000
H           0.000000           0.000000           1.461908
}

set {
basis              cc-pvtz
reference          uks
maxiter            500
DAMPING_PERCENTAGE 1
E_CONVERGENCE      1.0E-8
D_CONVERGENCE      1.0E-8
DIIS_MAX_VECS      400
MBIS_MAXITER       8000
guess              read
}

E, wfn = energy('b3lyp', restart_file='last_wfn', return_wfn=True)
properties('b3lyp','MBIS_CHARGES', wfn=wfn)
wfn.to_file('last_wfn')
--------------------------------------------------------------------------

    Molecular point group: c2v
  Charge       = 0
  Multiplicity = 2
  Basis Set: CC-PVTZ
    Blend: CC-PVTZ
  Basis Set: (CC-PVTZ AUX)
    Blend: CC-PVTZ-JKFIT
  @DF-UKS Final Energy:   -75.68259913366225
    Total Energy =                        -75.6825991336622508
 Dipole X            :          0.0000000            0.0000000            0.0000000
 Dipole Y            :          0.0000000            0.0000000            0.0000000
 Dipole Z            :         -0.5866519            1.2888427            0.7021909
 Magnitude           :                                                    0.7021909
    Molecular point group: c2v

    Geometry (in Angstrom), charge = 0, multiplicity = 2:

       Center              X                  Y                   Z               Mass
    ------------   -----------------  -----------------  -----------------  -----------------
         O            0.000000000000     0.000000000000    -0.086653533924    15.994914619570
         H            0.000000000000     0.000000000000     1.375254466076     1.007825032230

  Charge       = 0
  Multiplicity = 2
  Basis Set: CC-PVTZ
    Blend: CC-PVTZ
  Basis Set: (CC-PVTZ AUX)
    Blend: CC-PVTZ-JKFIT

    Orbital Energies [Eh]
    ---------------------

    Alpha Occupied:

       1A1   -19.220808     2A1    -0.957419     3A1    -0.414540
       1B1    -0.409106     1B2    -0.335053

    Alpha Virtual:

       4A1    -0.095201     5A1     0.249091     2B1     0.495166
       2B2     0.521402     6A1     0.576426     3B1     0.672126
       3B2     0.689173     7A1     0.781196     8A1     1.042514
       1A2     1.438305     9A1     1.439057     4B1     1.508844
       4B2     1.546844    10A1     1.915834    11A1     2.364321
      12A1     3.102897     2A2     3.156871    13A1     3.156905
       5B1     3.217235     5B2     3.232957     6B1     3.560783
       6B2     3.616991     7B1     3.618090     7B2     3.624134
      14A1     3.772645    15A1     4.499483     8B1     5.077151
       8B2     5.077646     3A2     5.086199    16A1     5.086836
       9B1     5.253473     9B2     5.302687    17A1     5.640105
      18A1     6.114943     4A2     6.115418    10B1     6.253633
      10B2     6.313212    19A1     6.872117    20A1     7.450969

    Beta Occupied:

       1A1   -19.191336     2A1    -0.869585     3A1    -0.391291
       1B2    -0.306089

    Beta Virtual:

       1B1    -0.155740     4A1    -0.089932     5A1     0.237269
       2B2     0.520821     2B1     0.536235     6A1     0.595118
       3B2     0.685751     3B1     0.696381     7A1     0.793565
       8A1     1.062268     1A2     1.491537     9A1     1.497717
       4B2     1.557047     4B1     1.565196    10A1     1.928273
      11A1     2.337516    12A1     3.112394     2A2     3.131167
      13A1     3.131257     5B2     3.217994     5B1     3.220655
       6B1     3.583908     6B2     3.585510     7B2     3.638980
       7B1     3.670111    14A1     3.758934    15A1     4.513599
       3A2     5.139543    16A1     5.145097     8B2     5.148707
       8B1     5.151714     9B2     5.318831     9B1     5.324772
      17A1     5.677483     4A2     6.210222    18A1     6.225210
      10B2     6.339296    10B1     6.364856    19A1     6.913711
      20A1     7.509695

    Final Occupation by Irrep:
             A1    A2    B1    B2
    DOCC [     3,    0,    0,    1 ]
    SOCC [     0,    0,    1,    0 ]
    NA   [     3,    0,    1,    1 ]
    NB   [     3,    0,    0,    1 ]

  @DF-UKS Final Energy:   -75.68259913281344

   => Energetics <=

    Nuclear Repulsion Energy =              2.8958167582091350
    One-Electron Energy =                -109.9710335356118378
    Two-Electron Energy =                  38.4701855719994157
    DFT Exchange-Correlation Energy =      -7.0775679274101631
    Empirical Dispersion Energy =           0.0000000000000000
    VV10 Nonlocal Energy =                  0.0000000000000000
    Total Energy =                        -75.6825991328134506

  UHF NO Occupations:
  HONO-2 :    2 A1 1.9994552
  HONO-1 :    3 A1 1.9860094
  HONO-0 :    1 B1 1.0000000
  LUNO+0 :    4 A1 0.0139906
  LUNO+1 :    5 A1 0.0005448
  LUNO+2 :    2 B2 0.0002044
  LUNO+3 :    6 A1 0.0000006

Computation Completed

Properties will be evaluated at   0.000000,   0.000000,   0.000000 [a0]

Properties computed using the B3LYP density matrix

 Multipole Moments:

 ------------------------------------------------------------------------------------
     Multipole            Electronic (a.u.)      Nuclear  (a.u.)        Total (a.u.)
 ------------------------------------------------------------------------------------

 L = 1.  Multiply by 2.5417464519 to convert [e a0] to [Debye]
 Dipole X            :          0.0000000            0.0000000            0.0000000
 Dipole Y            :          0.0000000            0.0000000            0.0000000
 Dipole Z            :         -0.5866519            1.2888427            0.7021909
 Magnitude           :                                                    0.7021909

 L = 2.  Multiply by 1.3450342976 to convert [e a0^2] to [Debye ang]
 Quadrupole XX       :         -4.3162865            0.0000000           -4.3162865
 Quadrupole XY       :          0.0000000            0.0000000            0.0000000
 Quadrupole XZ       :          0.0000000            0.0000000            0.0000000
 Quadrupole YY       :         -5.2134913            0.0000000           -5.2134913
 Quadrupole YZ       :          0.0000000            0.0000000            0.0000000
 Quadrupole ZZ       :         -9.4523590            6.9685599           -2.4837991
 Traceless XX        :          2.0110924           -2.3228533           -0.3117609
 Traceless YY        :          1.1138877           -2.3228533           -1.2089656
 Traceless ZZ        :         -3.1249801            4.6457066            1.5207265

 ------------------------------------------------------------------------------------
  ==> Computing MBIS Charges <==

  Electron Count from Grid (Expected Number):  9.00000 ( 9.00000)
  Difference: -0.00000

  MBIS Charges: (a.u.)
   Center  Symbol  Z      Pop.       Charge
      1       O    8    8.275673   -0.275673
      2       H    1    0.724327    0.275673

  MBIS Dipoles: [e a0]
   Center  Symbol  Z        X           Y           Z
      1       O    8   -0.000000   -0.000000   -0.131689
      2       H    1    0.000000    0.000000    0.072304

  MBIS Quadrupoles: [e a0^2]
   Center  Symbol  Z      XX        XY        XZ        YY        YZ        ZZ
      1       O    8   -3.7343    0.0000   -0.0000   -4.5934    0.0000   -4.1957
      2       H    1   -0.5820    0.0000   -0.0000   -0.6201    0.0000   -0.5615

  MBIS Octupoles: [e a0^3]
   Center  Symbol  Z      XXX       XXY       XXZ       XYY       XYZ       XZZ       YYY       YYZ       YZZ       ZZZ
      1       O    8   -0.0000   -0.0000   -0.1831   -0.0000   -0.0000    0.0000   -0.0000   -0.1607   -0.0000   -0.6827
      2       H    1    0.0000    0.0000    0.0228    0.0000    0.0000   -0.0000    0.0000    0.0650   -0.0000    0.1078

  MBIS Radial Moments:
   Center  Symbol  Z      [a0^2]      [a0^3]      [a0^4]
      1       O    8   12.523441   24.351806   56.584207
      2       H    1    1.763594    3.930568   10.462266

  MBIS Valence Widths: [a0]
   Center  Symbol  Z     Width
      1       O    8    0.398193
      2       H    1    0.452701

*** tstop() called on Mac.lan at Sun Aug 10 17:12:07 2025
Module time:
	user time   =       2.71 seconds =       0.05 minutes
	system time =       1.66 seconds =       0.03 minutes
	total time  =          0 seconds =       0.00 minutes
Total time:
	user time   =      14.80 seconds =       0.25 minutes
	system time =       2.81 seconds =       0.05 minutes
	total time  =          2 seconds =       0.03 minutes

    Psi4 stopped on: Sunday, 10 August 2025 05:12PM
    Psi4 wall time for execution: 0:00:01.72

*** Psi4 exiting successfully. Buy a developer a beer!
