                               Psi4 1.9.1 release

  ==> Input File <==

--------------------------------------------------------------------------
molecule {
0 2
O           0.000000           0.000000           0.000000
H           0.000000           0.000000           1.300800
}

set {
basis              cc-pvtz
reference          uks
maxiter            500
DAMPING_PERCENTAGE 1
E_CONVERGENCE      1.0E-8
D_CONVERGENCE      1.0E-8
DIIS_MAX_VECS      400
MBIS_MAXITER       8000
guess              read
}

E, wfn = energy('b3lyp', restart_file='last_wfn', return_wfn=True)
properties('b3lyp','MBIS_CHARGES', wfn=wfn)
wfn.to_file('last_wfn')
--------------------------------------------------------------------------

    Molecular point group: c2v
  Charge       = 0
  Multiplicity = 2
  Basis Set: CC-PVTZ
    Blend: CC-PVTZ
  Basis Set: (CC-PVTZ AUX)
    Blend: CC-PVTZ-JKFIT
  @DF-UKS Final Energy:   -75.71597670354708
    Total Energy =                        -75.7159767035470992
 Dipole X            :          0.0000000            0.0000000            0.0000000
 Dipole Y            :          0.0000000            0.0000000            0.0000000
 Dipole Z            :         -0.4462845            1.1468072            0.7005227
 Magnitude           :                                                    0.7005227
    Molecular point group: c2v

    Geometry (in Angstrom), charge = 0, multiplicity = 2:

       Center              X                  Y                   Z               Mass
    ------------   -----------------  -----------------  -----------------  -----------------
         O            0.000000000000     0.000000000000    -0.077103974346    15.994914619570
         H            0.000000000000     0.000000000000     1.223696025654     1.007825032230

  Charge       = 0
  Multiplicity = 2
  Basis Set: CC-PVTZ
    Blend: CC-PVTZ
  Basis Set: (CC-PVTZ AUX)
    Blend: CC-PVTZ-JKFIT

    Orbital Energies [Eh]
    ---------------------

    Alpha Occupied:

       1A1   -19.214334     2A1    -0.964362     3A1    -0.431665
       1B1    -0.408867     1B2    -0.335245

    Alpha Virtual:

       4A1    -0.054931     5A1     0.261289     2B1     0.503647
       2B2     0.532756     6A1     0.560824     3B1     0.673786
       3B2     0.690448     7A1     0.855312     8A1     1.057578
       1A2     1.433544     9A1     1.434337     4B1     1.569386
       4B2     1.607145    10A1     2.035373    11A1     2.321446
       2A2     3.150270    12A1     3.150316     5B1     3.211540
      13A1     3.211900     5B2     3.236934     6B1     3.611585
       6B2     3.633135     7B1     3.688844     7B2     3.726612
      14A1     3.819397    15A1     4.710764     8B1     5.077259
       8B2     5.077535     3A2     5.117789    16A1     5.119527
       9B1     5.473843     9B2     5.522316    17A1     5.913879
      18A1     6.123266     4A2     6.123598    10B1     6.345396
      10B2     6.403411    19A1     6.905357    20A1     7.835891

    Beta Occupied:

       1A1   -19.187315     2A1    -0.884808     3A1    -0.410113
       1B2    -0.308479

    Beta Virtual:

       1B1    -0.158858     4A1    -0.046571     5A1     0.258033
       2B2     0.537662     2B1     0.556358     6A1     0.573882
       3B2     0.689707     3B1     0.697139     7A1     0.877855
       8A1     1.071320     1A2     1.486119     9A1     1.492207
       4B2     1.614342     4B1     1.621531    10A1     2.054741
      11A1     2.308391     2A2     3.140710    12A1     3.140904
      13A1     3.220621     5B2     3.235776     5B1     3.243526
       6B2     3.622299     6B1     3.624395     7B2     3.737038
       7B1     3.758682    14A1     3.819083    15A1     4.732224
       8B2     5.147807     8B1     5.150813     3A2     5.166499
      16A1     5.171782     9B2     5.533467     9B1     5.540379
      17A1     5.942755     4A2     6.217157    18A1     6.231824
      10B2     6.420590    10B1     6.442826    19A1     6.949142
      20A1     7.877314

    Final Occupation by Irrep:
             A1    A2    B1    B2
    DOCC [     3,    0,    0,    1 ]
    SOCC [     0,    0,    1,    0 ]
    NA   [     3,    0,    1,    1 ]
    NB   [     3,    0,    0,    1 ]

  @DF-UKS Final Energy:   -75.71597670452839

   => Energetics <=

    Nuclear Repulsion Energy =              3.2544723903444037
    One-Electron Energy =                -110.6879217909126396
    Two-Electron Energy =                  38.8202810373801839
    DFT Exchange-Correlation Energy =      -7.1028083413403298
    Empirical Dispersion Energy =           0.0000000000000000
    VV10 Nonlocal Energy =                  0.0000000000000000
    Total Energy =                        -75.7159767045283871

  UHF NO Occupations:
  HONO-2 :    2 A1 1.9994599
  HONO-1 :    3 A1 1.9971207
  HONO-0 :    1 B1 1.0000000
  LUNO+0 :    4 A1 0.0028793
  LUNO+1 :    5 A1 0.0005401
  LUNO+2 :    2 B2 0.0001767
  LUNO+3 :    6 A1 0.0000006

Computation Completed

Properties will be evaluated at   0.000000,   0.000000,   0.000000 [a0]

Properties computed using the B3LYP density matrix

 Multipole Moments:

 ------------------------------------------------------------------------------------
     Multipole            Electronic (a.u.)      Nuclear  (a.u.)        Total (a.u.)
 ------------------------------------------------------------------------------------

 L = 1.  Multiply by 2.5417464519 to convert [e a0] to [Debye]
 Dipole X            :          0.0000000            0.0000000            0.0000000
 Dipole Y            :          0.0000000            0.0000000            0.0000000
 Dipole Z            :         -0.4462845            1.1468072            0.7005227
 Magnitude           :                                                    0.7005227

 L = 2.  Multiply by 1.3450342976 to convert [e a0^2] to [Debye ang]
 Quadrupole XX       :         -4.2280987            0.0000000           -4.2280987
 Quadrupole XY       :          0.0000000            0.0000000            0.0000000
 Quadrupole XZ       :          0.0000000            0.0000000            0.0000000
 Quadrupole YY       :         -5.1264459            0.0000000           -5.1264459
 Quadrupole YZ       :          0.0000000            0.0000000            0.0000000
 Quadrupole ZZ       :         -8.2568234            5.5172671           -2.7395563
 Traceless XX        :          1.6423573           -1.8390890           -0.1967317
 Traceless YY        :          0.7440101           -1.8390890           -1.0950790
 Traceless ZZ        :         -2.3863674            3.6781781            1.2918107

 ------------------------------------------------------------------------------------
  ==> Computing MBIS Charges <==

  Electron Count from Grid (Expected Number):  9.00000 ( 9.00000)
  Difference:  0.00000

  MBIS Charges: (a.u.)
   Center  Symbol  Z      Pop.       Charge
      1       O    8    8.309644   -0.309644
      2       H    1    0.690356    0.309644

  MBIS Dipoles: [e a0]
   Center  Symbol  Z        X           Y           Z
      1       O    8   -0.000000   -0.000000   -0.118863
      2       H    1   -0.000000   -0.000000    0.058232

  MBIS Quadrupoles: [e a0^2]
   Center  Symbol  Z      XX        XY        XZ        YY        YZ        ZZ
      1       O    8   -3.7375    0.0000   -0.0000   -4.5949   -0.0000   -4.2174
      2       H    1   -0.4906    0.0000   -0.0000   -0.5316    0.0000   -0.4753

  MBIS Octupoles: [e a0^3]
   Center  Symbol  Z      XXX       XXY       XXZ       XYY       XYZ       XZZ       YYY       YYZ       YZZ       ZZZ
      1       O    8   -0.0000   -0.0000   -0.1552   -0.0000   -0.0000    0.0000   -0.0000   -0.1412    0.0000   -0.5977
      2       H    1    0.0000    0.0000    0.0068    0.0000   -0.0000    0.0000    0.0000    0.0419    0.0000    0.0770

  MBIS Radial Moments:
   Center  Symbol  Z      [a0^2]      [a0^3]      [a0^4]
      1       O    8   12.549762   24.327625   56.352533
      2       H    1    1.497521    3.156031    7.955241

  MBIS Valence Widths: [a0]
   Center  Symbol  Z     Width
      1       O    8    0.397715
      2       H    1    0.427082

*** tstop() called on Mac.lan at Sun Aug 10 17:11:46 2025
Module time:
	user time   =       2.49 seconds =       0.04 minutes
	system time =       2.16 seconds =       0.04 minutes
	total time  =          0 seconds =       0.00 minutes
Total time:
	user time   =      12.03 seconds =       0.20 minutes
	system time =       4.38 seconds =       0.07 minutes
	total time  =          1 seconds =       0.02 minutes

    Psi4 stopped on: Sunday, 10 August 2025 05:11PM
    Psi4 wall time for execution: 0:00:01.60

*** Psi4 exiting successfully. Buy a developer a beer!
