                               Psi4 1.9.1 release

  ==> Input File <==

--------------------------------------------------------------------------
molecule {
0 2
C           0.000000           0.000000           0.000000
H           0.000000           0.000000           1.602993
}

set {
basis              cc-pvtz
reference          uks
maxiter            500
DAMPING_PERCENTAGE 1
E_CONVERGENCE      1.0E-8
D_CONVERGENCE      1.0E-8
DIIS_MAX_VECS      400
MBIS_MAXITER       8000
guess              read
}

E, wfn = energy('b3lyp', restart_file='last_wfn', return_wfn=True)
properties('b3lyp','MBIS_CHARGES', wfn=wfn)
wfn.to_file('last_wfn')
--------------------------------------------------------------------------

    Molecular point group: c2v
  Charge       = 0
  Multiplicity = 2
  Basis Set: CC-PVTZ
    Blend: CC-PVTZ
  Basis Set: (CC-PVTZ AUX)
    Blend: CC-PVTZ-JKFIT
  @DF-UKS Final Energy:   -38.44474025580442
    Total Energy =                        -38.4447402558044189
 Dipole X            :          0.0000000            0.0000000            0.0000000
 Dipole Y            :          0.0000000            0.0000000            0.0000000
 Dipole Z            :         -1.2109033            1.3863259            0.1754226
 Magnitude           :                                                    0.1754226
    Molecular point group: c2v

    Geometry (in Angstrom), charge = 0, multiplicity = 2:

       Center              X                  Y                   Z               Mass
    ------------   -----------------  -----------------  -----------------  -----------------
         C            0.000000000000     0.000000000000    -0.124197278783    12.000000000000
         H            0.000000000000     0.000000000000     1.478795721217     1.007825032230

  Charge       = 0
  Multiplicity = 2
  Basis Set: CC-PVTZ
    Blend: CC-PVTZ
  Basis Set: (CC-PVTZ AUX)
    Blend: CC-PVTZ-JKFIT

    Orbital Energies [Eh]
    ---------------------

    Alpha Occupied:

       1A1   -10.328543     2A1    -0.595763     3A1    -0.310103
       1B1    -0.272379

    Alpha Virtual:

       1B2    -0.157591     4A1    -0.030572     5A1     0.257098
       2B1     0.282564     2B2     0.301721     6A1     0.311826
       7A1     0.444442     3B1     0.537410     3B2     0.539371
       1A2     0.650333     8A1     0.656043     9A1     0.807749
       4B1     0.898949     4B2     0.900566    10A1     1.186072
       5B1     1.885870     5B2     1.912911    11A1     2.053330
      12A1     2.427856     6B1     2.540591     6B2     2.543527
      13A1     2.580263     2A2     2.606837    14A1     2.611884
       7B1     2.629299     7B2     2.631938     3A2     2.870895
      15A1     2.883463     8B1     2.940354     8B2     2.957932
      16A1     3.197208     4A2     3.259121    17A1     3.259817
       9B2     3.582009     9B1     3.583464    18A1     3.594659
      10B2     3.856662    10B1     3.857590    19A1     4.048827
      20A1     5.125456

    Beta Occupied:

       1A1   -10.312489     2A1    -0.541718     3A1    -0.299811

    Beta Virtual:

       1B2    -0.140813     1B1    -0.093033     4A1    -0.021000
       5A1     0.254891     2B2     0.308983     6A1     0.321198
       2B1     0.337799     7A1     0.466828     3B2     0.538716
       3B1     0.555106     8A1     0.693083     1A2     0.693951
       9A1     0.818843     4B2     0.900939     4B1     0.920449
      10A1     1.190243     5B2     1.923777     5B1     1.967548
      11A1     2.065031    12A1     2.421881     6B2     2.547737
       6B1     2.578507    13A1     2.595911     2A2     2.644920
      14A1     2.649784     7B2     2.688180     7B1     2.688847
      15A1     2.947265     3A2     2.948165     8B2     2.966791
       8B1     3.010678    16A1     3.219821     4A2     3.255956
      17A1     3.256887     9B2     3.572729     9B1     3.580018
      18A1     3.617926    10B2     3.848939    10B1     3.859595
      19A1     4.042317    20A1     5.134136

    Final Occupation by Irrep:
             A1    A2    B1    B2
    DOCC [     3,    0,    0,    0 ]
    SOCC [     0,    0,    1,    0 ]
    NA   [     3,    0,    1,    0 ]
    NB   [     3,    0,    0,    0 ]

  @DF-UKS Final Energy:   -38.44474025691817

   => Energetics <=

    Nuclear Repulsion Energy =              1.9807093755368865
    One-Electron Energy =                 -54.9715830272411523
    Two-Electron Energy =                  19.0002335962469395
    DFT Exchange-Correlation Energy =      -4.4541002014608475
    Empirical Dispersion Energy =           0.0000000000000000
    VV10 Nonlocal Energy =                  0.0000000000000000
    Total Energy =                        -38.4447402569181662

  UHF NO Occupations:
  HONO-2 :    2 A1 1.9990352
  HONO-1 :    3 A1 1.9975778
  HONO-0 :    1 B1 1.0000000
  LUNO+0 :    4 A1 0.0024222
  LUNO+1 :    5 A1 0.0009648
  LUNO+2 :    6 A1 0.0000007
  LUNO+3 :    7 A1 0.0000000

Computation Completed

Properties will be evaluated at   0.000000,   0.000000,   0.000000 [a0]

Properties computed using the B3LYP density matrix

 Multipole Moments:

 ------------------------------------------------------------------------------------
     Multipole            Electronic (a.u.)      Nuclear  (a.u.)        Total (a.u.)
 ------------------------------------------------------------------------------------

 L = 1.  Multiply by 2.5417464519 to convert [e a0] to [Debye]
 Dipole X            :          0.0000000            0.0000000            0.0000000
 Dipole Y            :          0.0000000            0.0000000            0.0000000
 Dipole Z            :         -1.2109033            1.3863259            0.1754225
 Magnitude           :                                                    0.1754225

 L = 2.  Multiply by 1.3450342976 to convert [e a0^2] to [Debye ang]
 Quadrupole XX       :         -5.9990020            0.0000000           -5.9990020
 Quadrupole XY       :          0.0000000            0.0000000            0.0000000
 Quadrupole XZ       :          0.0000000            0.0000000            0.0000000
 Quadrupole YY       :         -4.5543531            0.0000000           -4.5543531
 Quadrupole YZ       :          0.0000000            0.0000000            0.0000000
 Quadrupole ZZ       :        -14.0141161            8.1398372           -5.8742788
 Traceless XX        :          2.1901550           -2.7132791           -0.5231240
 Traceless YY        :          3.6348039           -2.7132791            0.9215249
 Traceless ZZ        :         -5.8249590            5.4265581           -0.3984008

 ------------------------------------------------------------------------------------
  ==> Computing MBIS Charges <==

  Electron Count from Grid (Expected Number):  7.00000 ( 7.00000)
  Difference: -0.00000

  MBIS Charges: (a.u.)
   Center  Symbol  Z      Pop.       Charge
      1       C    6    5.973845    0.026155
      2       H    1    1.026154   -0.026154

  MBIS Dipoles: [e a0]
   Center  Symbol  Z        X           Y           Z
      1       C    6    0.000000    0.000000    0.159597
      2       H    1    0.000000    0.000000    0.095054

  MBIS Quadrupoles: [e a0^2]
   Center  Symbol  Z      XX        XY        XZ        YY        YZ        ZZ
      1       C    6   -5.0246    0.0000   -0.0000   -3.6503    0.0000   -5.1894
      2       H    1   -0.9744   -0.0000   -0.0000   -0.9041    0.0000   -0.9384

  MBIS Octupoles: [e a0^3]
   Center  Symbol  Z      XXX       XXY       XXZ       XYY       XYZ       XZZ       YYY       YYZ       YZZ       ZZZ
      1       C    6    0.0000   -0.0000    0.1606    0.0000   -0.0000   -0.0000   -0.0000    0.0993   -0.0000    0.1280
      2       H    1   -0.0000    0.0000    0.0398    0.0000   -0.0000   -0.0000   -0.0000   -0.0452   -0.0000    0.1015

  MBIS Radial Moments:
   Center  Symbol  Z      [a0^2]      [a0^3]      [a0^4]
      1       C    6   13.864257   34.402831   101.901873
      2       H    1    2.816913    6.652422   18.748755

  MBIS Valence Widths: [a0]
   Center  Symbol  Z     Width
      1       C    6    0.523838
      2       H    1    0.481128

*** tstop() called on Mac.lan at Sun Aug 10 17:09:48 2025
Module time:
	user time   =       2.65 seconds =       0.04 minutes
	system time =       1.43 seconds =       0.02 minutes
	total time  =          0 seconds =       0.00 minutes
Total time:
	user time   =      13.27 seconds =       0.22 minutes
	system time =       3.52 seconds =       0.06 minutes
	total time  =          1 seconds =       0.02 minutes

    Psi4 stopped on: Sunday, 10 August 2025 05:09PM
    Psi4 wall time for execution: 0:00:01.64

*** Psi4 exiting successfully. Buy a developer a beer!
