                               Psi4 1.9.1 release

  ==> Input File <==

--------------------------------------------------------------------------
molecule {
0 1
O           0.000000           0.000000           0.000000
C           0.000000           0.000000           0.799782
}

set {
basis              cc-pvtz
reference          uks
maxiter            500
DAMPING_PERCENTAGE 1
E_CONVERGENCE      1.0E-8
D_CONVERGENCE      1.0E-8
DIIS_MAX_VECS      400
MBIS_MAXITER       8000
guess              read
}

E, wfn = energy('b3lyp', restart_file='last_wfn', return_wfn=True)
properties('b3lyp','MBIS_CHARGES', wfn=wfn)
wfn.to_file('last_wfn')
--------------------------------------------------------------------------

    Molecular point group: c2v
  Charge       = 0
  Multiplicity = 1
  Basis Set: CC-PVTZ
    Blend: CC-PVTZ
  Basis Set: (CC-PVTZ AUX)
    Blend: CC-PVTZ-JKFIT
  @DF-UKS Final Energy:  -112.79148132696947
    Total Energy =                       -112.7914813269694747
 Dipole X            :          0.0000000            0.0000000            0.0000000
 Dipole Y            :          0.0000000            0.0000000            0.0000000
 Dipole Z            :         -0.4429691           -0.0016473           -0.4446164
 Magnitude           :                                                    0.4446164
    Molecular point group: c2v

    Geometry (in Angstrom), charge = 0, multiplicity = 1:

       Center              X                  Y                   Z               Mass
    ------------   -----------------  -----------------  -----------------  -----------------
         O            0.000000000000     0.000000000000    -0.342825978590    15.994914619570
         C            0.000000000000     0.000000000000     0.456956021410    12.000000000000

  Charge       = 0
  Multiplicity = 1
  Basis Set: CC-PVTZ
    Blend: CC-PVTZ
  Basis Set: (CC-PVTZ AUX)
    Blend: CC-PVTZ-JKFIT

    Orbital Energies [Eh]
    ---------------------

    Alpha Occupied:

       1A1   -19.205489     2A1   -10.190454     3A1    -1.320096
       1B1    -0.634817     1B2    -0.634817     4A1    -0.578697
       5A1    -0.342319

    Alpha Virtual:

       2B2     0.105506     2B1     0.105506     6A1     0.168583
       3B1     0.303010     3B2     0.303010     7A1     0.304390
       8A1     0.541049     4B2     0.609143     4B1     0.609143
       1A2     0.633827     9A1     0.633827    10A1     0.853060
       5B1     1.014198     5B2     1.014198    11A1     1.268879
      12A1     1.597212     2A2     1.597212     6B1     1.687936
       6B2     1.687936    13A1     1.784207    14A1     2.141160
       7B1     2.210164     7B2     2.210164     8B2     2.635219
       8B1     2.635219    15A1     2.734558     3A2     2.891584
      16A1     2.891584     9B1     3.047802     9B2     3.047802
       4A2     3.101176    17A1     3.101176    18A1     3.150868
      10B2     3.758504    10B1     3.758504    19A1     4.095632
      11B1     4.251950    11B2     4.251950    12B2     5.184799
      12B1     5.184799    20A1     5.634046     5A2     6.126038
      21A1     6.126038    22A1     6.283666     6A2     6.283668
      23A1     6.443485    13B1     6.513430    13B2     6.513430
      24A1     7.153267    14B1     7.412679    14B2     7.412679
      25A1     9.619002    26A1    16.593560

    Beta Occupied:

       1A1   -19.205489     2A1   -10.190454     3A1    -1.320096
       1B1    -0.634817     1B2    -0.634817     4A1    -0.578697
       5A1    -0.342319

    Beta Virtual:

       2B2     0.105506     2B1     0.105506     6A1     0.168583
       3B1     0.303010     3B2     0.303010     7A1     0.304390
       8A1     0.541049     4B2     0.609143     4B1     0.609143
       1A2     0.633827     9A1     0.633827    10A1     0.853060
       5B1     1.014198     5B2     1.014198    11A1     1.268879
      12A1     1.597212     2A2     1.597212     6B1     1.687936
       6B2     1.687936    13A1     1.784207    14A1     2.141160
       7B1     2.210164     7B2     2.210164     8B2     2.635219
       8B1     2.635219    15A1     2.734558     3A2     2.891584
      16A1     2.891584     9B1     3.047802     9B2     3.047802
       4A2     3.101176    17A1     3.101176    18A1     3.150868
      10B2     3.758504    10B1     3.758504    19A1     4.095632
      11B1     4.251950    11B2     4.251950    12B2     5.184799
      12B1     5.184799    20A1     5.634046     5A2     6.126038
      21A1     6.126038    22A1     6.283666     6A2     6.283668
      23A1     6.443485    13B1     6.513430    13B2     6.513430
      24A1     7.153267    14B1     7.412679    14B2     7.412679
      25A1     9.619002    26A1    16.593560

    Final Occupation by Irrep:
             A1    A2    B1    B2
    DOCC [     5,    0,    1,    1 ]
    SOCC [     0,    0,    0,    0 ]
    NA   [     5,    0,    1,    1 ]
    NB   [     5,    0,    1,    1 ]

  @DF-UKS Final Energy:  -112.79148131131394

   => Energetics <=

    Nuclear Repulsion Energy =             31.7592870459200221
    One-Electron Energy =                -214.9135547612737582
    Two-Electron Energy =                  82.0251450267115558
    DFT Exchange-Correlation Energy =     -11.6623586226717659
    Empirical Dispersion Energy =           0.0000000000000000
    VV10 Nonlocal Energy =                  0.0000000000000000
    Total Energy =                       -112.7914813113139445

  UHF NO Occupations:
  HONO-2 :    3 A1 2.0000000
  HONO-1 :    4 A1 2.0000000
  HONO-0 :    5 A1 2.0000000
  LUNO+0 :    6 A1 0.0000000
  LUNO+1 :    7 A1 0.0000000
  LUNO+2 :    2 B2 0.0000000
  LUNO+3 :    8 A1 0.0000000

Computation Completed

Properties will be evaluated at   0.000000,   0.000000,   0.000000 [a0]

Properties computed using the B3LYP density matrix

 Multipole Moments:

 ------------------------------------------------------------------------------------
     Multipole            Electronic (a.u.)      Nuclear  (a.u.)        Total (a.u.)
 ------------------------------------------------------------------------------------

 L = 1.  Multiply by 2.5417464519 to convert [e a0] to [Debye]
 Dipole X            :          0.0000000            0.0000000            0.0000000
 Dipole Y            :          0.0000000            0.0000000            0.0000000
 Dipole Z            :         -0.4429691           -0.0016473           -0.4446164
 Magnitude           :                                                    0.4446164

 L = 2.  Multiply by 1.3450342976 to convert [e a0^2] to [Debye ang]
 Quadrupole XX       :         -6.8717318            0.0000000           -6.8717318
 Quadrupole XY       :          0.0000000            0.0000000            0.0000000
 Quadrupole XZ       :          0.0000000            0.0000000            0.0000000
 Quadrupole YY       :         -6.8717318            0.0000000           -6.8717318
 Quadrupole YZ       :          0.0000000            0.0000000            0.0000000
 Quadrupole ZZ       :        -16.6035445            7.8316667           -8.7718778
 Traceless XX        :          3.2439376           -2.6105556            0.6333820
 Traceless YY        :          3.2439376           -2.6105556            0.6333820
 Traceless ZZ        :         -6.4878751            5.2211112           -1.2667640

 ------------------------------------------------------------------------------------
  ==> Computing MBIS Charges <==

  Electron Count from Grid (Expected Number): 14.00000 (14.00000)
  Difference:  0.00000

  MBIS Charges: (a.u.)
   Center  Symbol  Z      Pop.       Charge
      1       O    8    7.919776    0.080224
      2       C    6    6.080225   -0.080225

  MBIS Dipoles: [e a0]
   Center  Symbol  Z        X           Y           Z
      1       O    8   -0.000000   -0.000000   -0.011684
      2       C    6    0.000000    0.000000   -0.311684

  MBIS Quadrupoles: [e a0^2]
   Center  Symbol  Z      XX        XY        XZ        YY        YZ        ZZ
      1       O    8   -2.9691   -0.0000    0.0000   -2.9691   -0.0000   -3.3681
      2       C    6   -3.9026   -0.0000    0.0000   -3.9026    0.0000   -4.8544

  MBIS Octupoles: [e a0^3]
   Center  Symbol  Z      XXX       XXY       XXZ       XYY       XYZ       XZZ       YYY       YYZ       YZZ       ZZZ
      1       O    8    0.0000    0.0000    0.0585   -0.0000    0.0000   -0.0000    0.0000    0.0585    0.0000    0.2414
      2       C    6   -0.0000    0.0000   -0.5526   -0.0000    0.0000   -0.0000    0.0000   -0.5526    0.0000   -1.4322

  MBIS Radial Moments:
   Center  Symbol  Z      [a0^2]      [a0^3]      [a0^4]
      1       O    8    9.306431   15.828418   32.403664
      2       C    6   12.659608   29.956559   84.322331

  MBIS Valence Widths: [a0]
   Center  Symbol  Z     Width
      1       O    8    0.350749
      2       C    6    0.489785

*** tstop() called on Mac.lan at Sun Aug 10 17:17:12 2025
Module time:
	user time   =       3.54 seconds =       0.06 minutes
	system time =       2.61 seconds =       0.04 minutes
	total time  =          0 seconds =       0.00 minutes
Total time:
	user time   =      14.32 seconds =       0.24 minutes
	system time =       4.78 seconds =       0.08 minutes
	total time  =          1 seconds =       0.02 minutes

    Psi4 stopped on: Sunday, 10 August 2025 05:17PM
    Psi4 wall time for execution: 0:00:01.85

*** Psi4 exiting successfully. Buy a developer a beer!
