                               Psi4 1.9.1 release

  ==> Input File <==

--------------------------------------------------------------------------
molecule {
0 2
O           0.000000           0.000000           0.000000
H           0.000000           0.000000           0.674268
}

set {
basis              cc-pvtz
reference          uks
maxiter            500
DAMPING_PERCENTAGE 1
E_CONVERGENCE      1.0E-8
D_CONVERGENCE      1.0E-8
DIIS_MAX_VECS      400
MBIS_MAXITER       8000
guess              read
}

E, wfn = energy('b3lyp', restart_file='last_wfn', return_wfn=True)
properties('b3lyp','MBIS_CHARGES', wfn=wfn)
wfn.to_file('last_wfn')
--------------------------------------------------------------------------

    Molecular point group: c2v
  Charge       = 0
  Multiplicity = 2
  Basis Set: CC-PVTZ
    Blend: CC-PVTZ
  Basis Set: (CC-PVTZ AUX)
    Blend: CC-PVTZ-JKFIT
  @DF-UKS Final Energy:   -75.58977287533889
    Total Energy =                        -75.5897728753388947
 Dipole X            :          0.0000000            0.0000000            0.0000000
 Dipole Y            :          0.0000000            0.0000000            0.0000000
 Dipole Z            :          0.0040053            0.5944460            0.5984513
 Magnitude           :                                                    0.5984513
    Molecular point group: c2v

    Geometry (in Angstrom), charge = 0, multiplicity = 2:

       Center              X                  Y                   Z               Mass
    ------------   -----------------  -----------------  -----------------  -----------------
         O            0.000000000000     0.000000000000    -0.039966745521    15.994914619570
         H            0.000000000000     0.000000000000     0.634301254479     1.007825032230

  Charge       = 0
  Multiplicity = 2
  Basis Set: CC-PVTZ
    Blend: CC-PVTZ
  Basis Set: (CC-PVTZ AUX)
    Blend: CC-PVTZ-JKFIT

    Orbital Energies [Eh]
    ---------------------

    Alpha Occupied:

       1A1   -19.172287     2A1    -1.141974     3A1    -0.522243
       1B1    -0.436110     1B2    -0.362820

    Alpha Virtual:

       4A1     0.062547     5A1     0.474823     2B1     0.515305
       2B2     0.548139     6A1     0.586338     3B1     0.745810
       3B2     0.767651     7A1     0.803024     8A1     1.409209
       1A2     1.410020     9A1     1.652799     4B1     1.814252
       4B2     1.851254    10A1     1.953911    11A1     2.723592
       2A2     3.337568    12A1     3.337671     5B1     3.341660
       5B2     3.371095     6B1     3.616215     6B2     3.671127
      13A1     3.930883     7B1     4.395163     7B2     4.427240
      14A1     4.590169     8B1     5.052193     8B2     5.052463
      15A1     5.758038     3A2     5.817318    16A1     5.824040
       4A2     6.101453    17A1     6.103813     9B1     6.138194
       9B2     6.190409    18A1     7.512463    19A1     7.708973
      10B1     8.032252    10B2     8.080811    20A1    13.986950

    Beta Occupied:

       1A1   -19.147386     2A1    -1.078077     3A1    -0.489745
       1B2    -0.337238

    Beta Virtual:

       1B1    -0.187781     4A1     0.067162     5A1     0.481362
       2B2     0.557176     2B1     0.579180     6A1     0.595677
       3B2     0.769949     3B1     0.775137     7A1     0.825144
       1A2     1.462827     8A1     1.468474     9A1     1.672066
       4B2     1.856750     4B1     1.860771    10A1     1.977227
      11A1     2.732543     2A2     3.354869    12A1     3.356064
       5B2     3.374601     5B1     3.382528     6B2     3.687913
       6B1     3.711483    13A1     3.944921     7B2     4.430557
       7B1     4.433015    14A1     4.621420     8B2     5.122622
       8B1     5.125533    15A1     5.804124     3A2     5.859285
      16A1     5.863623     4A2     6.194466     9B2     6.199291
       9B1     6.206905    17A1     6.209454    18A1     7.534424
      19A1     7.724782    10B2     8.090043    10B1     8.100619
      20A1    14.015047

    Final Occupation by Irrep:
             A1    A2    B1    B2
    DOCC [     3,    0,    0,    1 ]
    SOCC [     0,    0,    1,    0 ]
    NA   [     3,    0,    1,    1 ]
    NB   [     3,    0,    0,    1 ]

  @DF-UKS Final Energy:   -75.58977287522197

   => Energetics <=

    Nuclear Repulsion Energy =              6.2785386305741930
    One-Electron Energy =                -115.7726608887181783
    Two-Electron Energy =                  41.2502903912863133
    DFT Exchange-Correlation Energy =      -7.3459410083642913
    Empirical Dispersion Energy =           0.0000000000000000
    VV10 Nonlocal Energy =                  0.0000000000000000
    Total Energy =                        -75.5897728752219678

  UHF NO Occupations:
  HONO-2 :    1 B2 1.9998588
  HONO-1 :    3 A1 1.9993812
  HONO-0 :    1 B1 1.0000000
  LUNO+0 :    4 A1 0.0006188
  LUNO+1 :    2 B2 0.0001412
  LUNO+2 :    5 A1 0.0000921
  LUNO+3 :    6 A1 0.0000006

Computation Completed

Properties will be evaluated at   0.000000,   0.000000,   0.000000 [a0]

Properties computed using the B3LYP density matrix

 Multipole Moments:

 ------------------------------------------------------------------------------------
     Multipole            Electronic (a.u.)      Nuclear  (a.u.)        Total (a.u.)
 ------------------------------------------------------------------------------------

 L = 1.  Multiply by 2.5417464519 to convert [e a0] to [Debye]
 Dipole X            :          0.0000000            0.0000000            0.0000000
 Dipole Y            :          0.0000000            0.0000000            0.0000000
 Dipole Z            :          0.0040053            0.5944460            0.5984513
 Magnitude           :                                                    0.5984513

 L = 2.  Multiply by 1.3450342976 to convert [e a0^2] to [Debye ang]
 Quadrupole XX       :         -3.7747337            0.0000000           -3.7747337
 Quadrupole XY       :          0.0000000            0.0000000            0.0000000
 Quadrupole XZ       :          0.0000000            0.0000000            0.0000000
 Quadrupole YY       :         -4.6474166            0.0000000           -4.6474166
 Quadrupole YZ       :          0.0000000            0.0000000            0.0000000
 Quadrupole ZZ       :         -5.0848247            1.4824090           -3.6024156
 Traceless XX        :          0.7275913           -0.4941363            0.2334550
 Traceless YY        :         -0.1450916           -0.4941363           -0.6392280
 Traceless ZZ        :         -0.5824997            0.9882727            0.4057730

 ------------------------------------------------------------------------------------
  ==> Computing MBIS Charges <==

  Electron Count from Grid (Expected Number):  9.00000 ( 9.00000)
  Difference:  0.00000

  MBIS Charges: (a.u.)
   Center  Symbol  Z      Pop.       Charge
      1       O    8    8.438597   -0.438597
      2       H    1    0.561403    0.438597

  MBIS Dipoles: [e a0]
   Center  Symbol  Z        X           Y           Z
      1       O    8   -0.000000   -0.000000    0.020400
      2       H    1    0.000000   -0.000000    0.019200

  MBIS Quadrupoles: [e a0^2]
   Center  Symbol  Z      XX        XY        XZ        YY        YZ        ZZ
      1       O    8   -3.6309   -0.0000   -0.0000   -4.4847   -0.0000   -4.1213
      2       H    1   -0.1438   -0.0000   -0.0000   -0.1627   -0.0000   -0.1517

  MBIS Octupoles: [e a0^3]
   Center  Symbol  Z      XXX       XXY       XXZ       XYY       XYZ       XZZ       YYY       YYZ       YZZ       ZZZ
      1       O    8   -0.0000   -0.0000    0.1055   -0.0000    0.0000    0.0000   -0.0000    0.0531   -0.0000    0.0313
      2       H    1   -0.0000   -0.0000    0.0011    0.0000   -0.0000   -0.0000   -0.0000    0.0040   -0.0000    0.0046

  MBIS Radial Moments:
   Center  Symbol  Z      [a0^2]      [a0^3]      [a0^4]
      1       O    8   12.236912   23.203463   52.545143
      2       H    1    0.458263    0.594393    0.927407

  MBIS Valence Widths: [a0]
   Center  Symbol  Z     Width
      1       O    8    0.387981
      2       H    1    0.262235

*** tstop() called on Mac.lan at Sun Aug 10 17:10:57 2025
Module time:
	user time   =       3.35 seconds =       0.06 minutes
	system time =       2.42 seconds =       0.04 minutes
	total time  =          0 seconds =       0.00 minutes
Total time:
	user time   =      13.44 seconds =       0.22 minutes
	system time =       4.81 seconds =       0.08 minutes
	total time  =          2 seconds =       0.03 minutes

    Psi4 stopped on: Sunday, 10 August 2025 05:10PM
    Psi4 wall time for execution: 0:00:01.79

*** Psi4 exiting successfully. Buy a developer a beer!
