                               Psi4 1.9.1 release

  ==> Input File <==

--------------------------------------------------------------------------
molecule {
0 2
C           0.000000           0.000000           0.000000
H           0.000000           0.000000           0.859975
}

set {
basis              cc-pvtz
reference          uks
maxiter            500
DAMPING_PERCENTAGE 1
E_CONVERGENCE      1.0E-8
D_CONVERGENCE      1.0E-8
DIIS_MAX_VECS      400
MBIS_MAXITER       8000
guess              read
}

E, wfn = energy('b3lyp', restart_file='last_wfn', return_wfn=True)
properties('b3lyp','MBIS_CHARGES', wfn=wfn)
wfn.to_file('last_wfn')
--------------------------------------------------------------------------

    Molecular point group: c2v
  Charge       = 0
  Multiplicity = 2
  Basis Set: CC-PVTZ
    Blend: CC-PVTZ
  Basis Set: (CC-PVTZ AUX)
    Blend: CC-PVTZ-JKFIT
  @DF-UKS Final Energy:   -38.43511109895433
    Total Energy =                        -38.4351110989543301
 Dipole X            :          0.0000000            0.0000000            0.0000000
 Dipole Y            :          0.0000000            0.0000000            0.0000000
 Dipole Z            :         -0.0058235            0.7437372            0.7379137
 Magnitude           :                                                    0.7379137
    Molecular point group: c2v

    Geometry (in Angstrom), charge = 0, multiplicity = 2:

       Center              X                  Y                   Z               Mass
    ------------   -----------------  -----------------  -----------------  -----------------
         C            0.000000000000     0.000000000000    -0.066629458033    12.000000000000
         H            0.000000000000     0.000000000000     0.793345541967     1.007825032230

  Charge       = 0
  Multiplicity = 2
  Basis Set: CC-PVTZ
    Blend: CC-PVTZ
  Basis Set: (CC-PVTZ AUX)
    Blend: CC-PVTZ-JKFIT

    Orbital Energies [Eh]
    ---------------------

    Alpha Occupied:

       1A1   -10.250696     2A1    -0.723647     3A1    -0.324289
       1B1    -0.259625

    Alpha Virtual:

       1B2    -0.148288     4A1     0.073988     5A1     0.286521
       2B1     0.292079     2B2     0.311191     6A1     0.365975
       7A1     0.559961     3B1     0.607271     3B2     0.611961
       1A2     0.654438     8A1     0.660358     9A1     0.997980
       4B1     1.078470     4B2     1.078643    10A1     1.782986
      11A1     1.901078     5B1     1.935309     5B2     1.960015
      12A1     2.172144     2A2     2.552496    13A1     2.556287
       6B1     2.643187     6B2     2.645398     7B1     2.692566
       7B2     2.700930     3A2     2.894954    14A1     2.905317
      15A1     3.021804     8B1     3.025473     8B2     3.027879
      16A1     3.688643     4A2     3.855928    17A1     3.858748
       9B2     3.958222     9B1     3.959984    18A1     5.351718
      10B1     5.364149    10B2     5.367148    19A1     5.601963
      20A1    11.646455

    Beta Occupied:

       1A1   -10.236281     2A1    -0.684708     3A1    -0.299715

    Beta Virtual:

       1B2    -0.132171     1B1    -0.086525     4A1     0.076842
       5A1     0.293174     2B2     0.318423     2B1     0.346148
       6A1     0.380840     7A1     0.573390     3B2     0.614650
       3B1     0.641607     1A2     0.697955     8A1     0.698131
       9A1     1.009077     4B2     1.079854     4B1     1.098568
      10A1     1.801139    11A1     1.913576     5B2     1.971966
       5B1     2.015521    12A1     2.196801     2A2     2.585702
      13A1     2.586173     6B2     2.698867     6B1     2.700940
       7B2     2.706505     7B1     2.741503    14A1     2.961829
       3A2     2.967150     8B2     3.031321    15A1     3.045977
       8B1     3.064714    16A1     3.699997     4A2     3.875906
      17A1     3.876996     9B2     3.957373     9B1     3.974938
      18A1     5.362678    10B2     5.369300    10B1     5.398258
      19A1     5.609386    20A1    11.661226

    Final Occupation by Irrep:
             A1    A2    B1    B2
    DOCC [     3,    0,    0,    0 ]
    SOCC [     0,    0,    1,    0 ]
    NA   [     3,    0,    1,    0 ]
    NB   [     3,    0,    0,    0 ]

  @DF-UKS Final Energy:   -38.43511110160751

   => Energetics <=

    Nuclear Repulsion Energy =              3.6920413547137998
    One-Electron Energy =                 -58.1267291839584885
    Two-Electron Energy =                  20.6389878561293507
    DFT Exchange-Correlation Energy =      -4.6394111284921733
    Empirical Dispersion Energy =           0.0000000000000000
    VV10 Nonlocal Energy =                  0.0000000000000000
    Total Energy =                        -38.4351111016075038

  UHF NO Occupations:
  HONO-2 :    2 A1 1.9998997
  HONO-1 :    3 A1 1.9987773
  HONO-0 :    1 B1 1.0000000
  LUNO+0 :    4 A1 0.0012227
  LUNO+1 :    5 A1 0.0001003
  LUNO+2 :    6 A1 0.0000007
  LUNO+3 :    7 A1 0.0000000

Computation Completed

Properties will be evaluated at   0.000000,   0.000000,   0.000000 [a0]

Properties computed using the B3LYP density matrix

 Multipole Moments:

 ------------------------------------------------------------------------------------
     Multipole            Electronic (a.u.)      Nuclear  (a.u.)        Total (a.u.)
 ------------------------------------------------------------------------------------

 L = 1.  Multiply by 2.5417464519 to convert [e a0] to [Debye]
 Dipole X            :          0.0000000            0.0000000            0.0000000
 Dipole Y            :          0.0000000            0.0000000            0.0000000
 Dipole Z            :         -0.0058235            0.7437372            0.7379137
 Magnitude           :                                                    0.7379137

 L = 2.  Multiply by 1.3450342976 to convert [e a0^2] to [Debye ang]
 Quadrupole XX       :         -5.5077587            0.0000000           -5.5077587
 Quadrupole XY       :          0.0000000            0.0000000            0.0000000
 Quadrupole XZ       :          0.0000000            0.0000000            0.0000000
 Quadrupole YY       :         -4.0110155            0.0000000           -4.0110155
 Quadrupole YZ       :          0.0000000            0.0000000            0.0000000
 Quadrupole ZZ       :         -7.7893195            2.3427401           -5.4465793
 Traceless XX        :          0.2616059           -0.7809134           -0.5193075
 Traceless YY        :          1.7583490           -0.7809134            0.9774357
 Traceless ZZ        :         -2.0199549            1.5618268           -0.4581281

 ------------------------------------------------------------------------------------
  ==> Computing MBIS Charges <==

  Electron Count from Grid (Expected Number):  7.00000 ( 7.00000)
  Difference: -0.00000

  MBIS Charges: (a.u.)
   Center  Symbol  Z      Pop.       Charge
      1       C    6    6.142824   -0.142824
      2       H    1    0.857176    0.142824

  MBIS Dipoles: [e a0]
   Center  Symbol  Z        X           Y           Z
      1       C    6   -0.000000    0.000000    0.470783
      2       H    1   -0.000000    0.000000    0.035025

  MBIS Quadrupoles: [e a0^2]
   Center  Symbol  Z      XX        XY        XZ        YY        YZ        ZZ
      1       C    6   -5.1537    0.0000    0.0000   -3.7079   -0.0000   -5.4129
      2       H    1   -0.3541   -0.0000    0.0000   -0.3031   -0.0000   -0.3389

  MBIS Octupoles: [e a0^3]
   Center  Symbol  Z      XXX       XXY       XXZ       XYY       XYZ       XZZ       YYY       YYZ       YZZ       ZZZ
      1       C    6   -0.0000    0.0000    0.7442   -0.0000   -0.0000    0.0000    0.0000    0.8428    0.0000    1.7490
      2       H    1    0.0000    0.0000    0.0095    0.0000    0.0000   -0.0000    0.0000   -0.0066    0.0000    0.0009

  MBIS Radial Moments:
   Center  Symbol  Z      [a0^2]      [a0^3]      [a0^4]
      1       C    6   14.274478   35.434333   104.634254
      2       H    1    0.996091    1.518645    2.780972

  MBIS Valence Widths: [a0]
   Center  Symbol  Z     Width
      1       C    6    0.519659
      2       H    1    0.315156

*** tstop() called on Mac.lan at Sun Aug 10 17:08:44 2025
Module time:
	user time   =       3.07 seconds =       0.05 minutes
	system time =       2.48 seconds =       0.04 minutes
	total time  =          0 seconds =       0.00 minutes
Total time:
	user time   =      10.76 seconds =       0.18 minutes
	system time =       4.74 seconds =       0.08 minutes
	total time  =          1 seconds =       0.02 minutes

    Psi4 stopped on: Sunday, 10 August 2025 05:08PM
    Psi4 wall time for execution: 0:00:01.52

*** Psi4 exiting successfully. Buy a developer a beer!
