                               Psi4 1.9.1 release

  ==> Input File <==

--------------------------------------------------------------------------
molecule {
0 2
O           0.000000           0.000000           0.000000
N           0.000000           0.000000           0.919100
}

set {
basis              cc-pvtz
reference          uks
maxiter            500
DAMPING_PERCENTAGE 1
E_CONVERGENCE      1.0E-8
D_CONVERGENCE      1.0E-8
DIIS_MAX_VECS      400
MBIS_MAXITER       8000
guess              read
}

E, wfn = energy('b3lyp', restart_file='last_wfn', return_wfn=True)
properties('b3lyp','MBIS_CHARGES', wfn=wfn)
wfn.to_file('last_wfn')
--------------------------------------------------------------------------

    Molecular point group: c2v
  Charge       = 0
  Multiplicity = 2
  Basis Set: CC-PVTZ
    Blend: CC-PVTZ
  Basis Set: (CC-PVTZ AUX)
    Blend: CC-PVTZ-JKFIT
  @DF-UKS Final Energy:  -129.75692108564843
    Total Energy =                       -129.7569210856484290
 Dipole X            :          0.0000000            0.0000000            0.0000000
 Dipole Y            :          0.0000000            0.0000000            0.0000000
 Dipole Z            :         -0.2817656           -0.0034849           -0.2852505
 Magnitude           :                                                    0.2852505
    Molecular point group: c2v

    Geometry (in Angstrom), charge = 0, multiplicity = 2:

       Center              X                  Y                   Z               Mass
    ------------   -----------------  -----------------  -----------------  -----------------
         O            0.000000000000     0.000000000000    -0.429036275691    15.994914619570
         N            0.000000000000     0.000000000000     0.490063724309    14.003074004430

  Charge       = 0
  Multiplicity = 2
  Basis Set: CC-PVTZ
    Blend: CC-PVTZ
  Basis Set: (CC-PVTZ AUX)
    Blend: CC-PVTZ-JKFIT

    Orbital Energies [Eh]
    ---------------------

    Alpha Occupied:

       1A1   -19.254313     2A1   -14.396828     3A1    -1.445736
       4A1    -0.661376     1B1    -0.651788     1B2    -0.631813
       5A1    -0.498496     2B1    -0.102709

    Alpha Virtual:

       2B2     0.003873     6A1     0.240074     3B1     0.384014
       3B2     0.386731     7A1     0.427718     8A1     0.526744
       4B1     0.600825     4B2     0.613089     1A2     0.899776
       9A1     0.901280    10A1     0.985800    11A1     1.194535
       5B1     1.263583     5B2     1.266680     2A2     1.593665
      12A1     1.595149    13A1     1.917370     6B1     2.070052
       6B2     2.073974    14A1     2.418781     7B1     2.757420
       7B2     2.768018    15A1     3.184108    16A1     3.678585
       8B1     3.731341     8B2     3.731653     9B1     3.772826
       9B2     3.780536     3A2     3.865422    17A1     3.867040
      10B1     4.154077    10B2     4.156351     4A2     4.370384
      18A1     4.374539    19A1     4.635884    11B2     4.831349
      11B1     4.832206    12B1     5.118442    12B2     5.118578
      20A1     5.590517     5A2     6.081937    21A1     6.083500
       6A2     6.152095    22A1     6.153869    13B1     6.559694
      13B2     6.560606    23A1     6.757664    24A1     7.320673
      14B1     7.892511    14B2     7.893393    25A1     8.714125
      26A1    20.351981

    Beta Occupied:

       1A1   -19.243376     2A1   -14.384041     3A1    -1.429462
       4A1    -0.631424     1B2    -0.622408     1B1    -0.585135
       5A1    -0.466765

    Beta Virtual:

       2B2     0.017643     2B1     0.055321     6A1     0.244521
       3B2     0.390921     3B1     0.411576     7A1     0.438449
       8A1     0.537523     4B2     0.618896     4B1     0.638785
       9A1     0.922384     1A2     0.922946    10A1     1.007587
      11A1     1.203326     5B2     1.270094     5B1     1.298859
       2A2     1.621342    12A1     1.621532    13A1     1.929809
       6B2     2.078140     6B1     2.101137    14A1     2.436677
       7B2     2.778114     7B1     2.814338    15A1     3.199928
      16A1     3.694234     8B2     3.766420     8B1     3.766688
       9B2     3.788824     9B1     3.820872     3A2     3.884957
      17A1     3.885586    10B2     4.160486    10B1     4.193785
      18A1     4.422289     4A2     4.423211    19A1     4.653635
      11B2     4.835144    11B1     4.865114    12B2     5.145896
      12B1     5.145910    20A1     5.605911     5A2     6.110503
      21A1     6.110624     6A2     6.186040    22A1     6.186308
      13B2     6.564487    13B1     6.593705    23A1     6.767971
      24A1     7.334305    14B2     7.898635    14B1     7.930914
      25A1     8.733975    26A1    20.367968

    Final Occupation by Irrep:
             A1    A2    B1    B2
    DOCC [     5,    0,    1,    1 ]
    SOCC [     0,    0,    1,    0 ]
    NA   [     5,    0,    2,    1 ]
    NB   [     5,    0,    1,    1 ]

  @DF-UKS Final Energy:  -129.75692108622530

   => Energetics <=

    Nuclear Repulsion Energy =             32.2423281444021299
    One-Electron Energy =                -239.8902411231501901
    Two-Electron Energy =                  90.5676866182477482
    DFT Exchange-Correlation Energy =     -12.6766947257249853
    Empirical Dispersion Energy =           0.0000000000000000
    VV10 Nonlocal Energy =                  0.0000000000000000
    Total Energy =                       -129.7569210862253044

  UHF NO Occupations:
  HONO-2 :    5 A1 1.9996591
  HONO-1 :    1 B1 1.9996136
  HONO-0 :    2 B1 1.0000000
  LUNO+0 :    3 B1 0.0003864
  LUNO+1 :    6 A1 0.0003409
  LUNO+2 :    7 A1 0.0000938
  LUNO+3 :    2 B2 0.0000229

Computation Completed

Properties will be evaluated at   0.000000,   0.000000,   0.000000 [a0]

Properties computed using the B3LYP density matrix

 Multipole Moments:

 ------------------------------------------------------------------------------------
     Multipole            Electronic (a.u.)      Nuclear  (a.u.)        Total (a.u.)
 ------------------------------------------------------------------------------------

 L = 1.  Multiply by 2.5417464519 to convert [e a0] to [Debye]
 Dipole X            :          0.0000000            0.0000000            0.0000000
 Dipole Y            :          0.0000000            0.0000000            0.0000000
 Dipole Z            :         -0.2817656           -0.0034849           -0.2852505
 Magnitude           :                                                    0.2852505

 L = 2.  Multiply by 1.3450342976 to convert [e a0^2] to [Debye ang]
 Quadrupole XX       :         -7.6623905            0.0000000           -7.6623905
 Quadrupole XY       :          0.0000000            0.0000000            0.0000000
 Quadrupole XZ       :          0.0000000            0.0000000            0.0000000
 Quadrupole YY       :         -6.6778272            0.0000000           -6.6778272
 Quadrupole YZ       :          0.0000000            0.0000000            0.0000000
 Quadrupole ZZ       :        -19.7685290           11.2621178           -8.5064112
 Traceless XX        :          3.7071917           -3.7540393           -0.0468475
 Traceless YY        :          4.6917550           -3.7540393            0.9377157
 Traceless ZZ        :         -8.3989467            7.5080785           -0.8908682

 ------------------------------------------------------------------------------------
  ==> Computing MBIS Charges <==

  Electron Count from Grid (Expected Number): 15.00000 (15.00000)
  Difference: -0.00000

  MBIS Charges: (a.u.)
   Center  Symbol  Z      Pop.       Charge
      1       O    8    7.903787    0.096213
      2       N    7    7.096213   -0.096213

  MBIS Dipoles: [e a0]
   Center  Symbol  Z        X           Y           Z
      1       O    8    0.000000   -0.000000    0.103712
      2       N    7    0.000000    0.000000   -0.221855

  MBIS Quadrupoles: [e a0^2]
   Center  Symbol  Z      XX        XY        XZ        YY        YZ        ZZ
      1       O    8   -3.3601   -0.0000   -0.0000   -3.0784   -0.0000   -3.5613
      2       N    7   -4.3023    0.0000    0.0000   -3.5995    0.0000   -4.3468

  MBIS Octupoles: [e a0^3]
   Center  Symbol  Z      XXX       XXY       XXZ       XYY       XYZ       XZZ       YYY       YYZ       YZZ       ZZZ
      1       O    8    0.0000   -0.0000    0.2069    0.0000    0.0000    0.0000   -0.0000    0.1382    0.0000    0.2211
      2       N    7    0.0000   -0.0000   -0.6130    0.0000   -0.0000    0.0000   -0.0000   -0.2081   -0.0000   -0.2805

  MBIS Radial Moments:
   Center  Symbol  Z      [a0^2]      [a0^3]      [a0^4]
      1       O    8    9.999695   17.806080   38.243505
      2       N    7   12.248579   25.928178   65.756991

  MBIS Valence Widths: [a0]
   Center  Symbol  Z     Width
      1       O    8    0.364522
      2       N    7    0.433625

*** tstop() called on Mac.lan at Sun Aug 10 17:20:03 2025
Module time:
	user time   =       3.61 seconds =       0.06 minutes
	system time =       2.42 seconds =       0.04 minutes
	total time  =          0 seconds =       0.00 minutes
Total time:
	user time   =      21.47 seconds =       0.36 minutes
	system time =       4.53 seconds =       0.08 minutes
	total time  =          2 seconds =       0.03 minutes

    Psi4 stopped on: Sunday, 10 August 2025 05:20PM
    Psi4 wall time for execution: 0:00:02.52

*** Psi4 exiting successfully. Buy a developer a beer!
