                               Psi4 1.9.1 release

  ==> Input File <==

--------------------------------------------------------------------------
molecule {
0 1
O           0.000000           0.000000           0.000000
C           0.000000           0.000000           1.420303
}

set {
basis              cc-pvtz
reference          uks
maxiter            500
DAMPING_PERCENTAGE 1
E_CONVERGENCE      1.0E-8
D_CONVERGENCE      1.0E-8
DIIS_MAX_VECS      400
MBIS_MAXITER       8000
guess              read
}

E, wfn = energy('b3lyp', restart_file='last_wfn', return_wfn=True)
properties('b3lyp','MBIS_CHARGES', wfn=wfn)
wfn.to_file('last_wfn')
--------------------------------------------------------------------------

    Molecular point group: c2v
  Charge       = 0
  Multiplicity = 1
  Basis Set: CC-PVTZ
    Blend: CC-PVTZ
  Basis Set: (CC-PVTZ AUX)
    Blend: CC-PVTZ-JKFIT
  @DF-UKS Final Energy:  -113.25264203022464
    Total Energy =                       -113.2526420302246351
 Dipole X            :          0.0000000            0.0000000            0.0000000
 Dipole Y            :          0.0000000            0.0000000            0.0000000
 Dipole Z            :          0.3605108           -0.0029253            0.3575855
 Magnitude           :                                                    0.3575855
    Molecular point group: c2v

    Geometry (in Angstrom), charge = 0, multiplicity = 1:

       Center              X                  Y                   Z               Mass
    ------------   -----------------  -----------------  -----------------  -----------------
         O            0.000000000000     0.000000000000    -0.608811858568    15.994914619570
         C            0.000000000000     0.000000000000     0.811491141432    12.000000000000

  Charge       = 0
  Multiplicity = 1
  Basis Set: CC-PVTZ
    Blend: CC-PVTZ
  Basis Set: (CC-PVTZ AUX)
    Blend: CC-PVTZ-JKFIT

    Orbital Energies [Eh]
    ---------------------

    Alpha Occupied:

       1A1   -19.239004     2A1   -10.378948     3A1    -1.029361
       4A1    -0.586342     1B1    -0.400721     1B2    -0.400721
       5A1    -0.395996

    Alpha Virtual:

       2B2    -0.122009     2B1    -0.122009     6A1     0.112861
       3B1     0.287412     3B2     0.287412     7A1     0.300718
       8A1     0.319133     9A1     0.541607     4B1     0.615532
       4B2     0.615532     1A2     0.632425    10A1     0.632425
       5B1     0.764287     5B2     0.764287    11A1     1.035768
      12A1     1.189581    13A1     1.464501     2A2     1.464501
       6B1     1.694257     6B2     1.694257     7B1     1.977030
       7B2     1.977030    14A1     1.982814    15A1     2.166846
       8B2     2.617686     8B1     2.617686     3A2     2.677995
      16A1     2.677996     9B1     2.846844     9B2     2.846844
       4A2     2.887284    17A1     2.887286    18A1     2.961729
      10B1     3.110540    10B2     3.110540    19A1     3.178746
      20A1     3.756360    11B1     3.765388    11B2     3.765388
      12B1     5.079149    12B2     5.079149    21A1     5.178431
      22A1     5.201114     5A2     5.201116    13B1     5.583163
      13B2     5.583163    23A1     6.103106     6A2     6.179268
      24A1     6.179294    14B1     6.589766    14B2     6.589766
      25A1     7.201756    26A1     8.815978

    Beta Occupied:

       1A1   -19.239004     2A1   -10.378948     3A1    -1.029361
       4A1    -0.586342     1B1    -0.400721     1B2    -0.400721
       5A1    -0.395996

    Beta Virtual:

       2B2    -0.122009     2B1    -0.122009     6A1     0.112861
       3B1     0.287412     3B2     0.287412     7A1     0.300718
       8A1     0.319133     9A1     0.541607     4B1     0.615532
       4B2     0.615532     1A2     0.632425    10A1     0.632425
       5B1     0.764287     5B2     0.764287    11A1     1.035768
      12A1     1.189581    13A1     1.464501     2A2     1.464501
       6B1     1.694257     6B2     1.694257     7B1     1.977030
       7B2     1.977030    14A1     1.982814    15A1     2.166846
       8B2     2.617686     8B1     2.617686     3A2     2.677995
      16A1     2.677996     9B1     2.846844     9B2     2.846844
       4A2     2.887284    17A1     2.887286    18A1     2.961729
      10B1     3.110540    10B2     3.110540    19A1     3.178746
      20A1     3.756360    11B1     3.765388    11B2     3.765388
      12B1     5.079149    12B2     5.079149    21A1     5.178431
      22A1     5.201114     5A2     5.201116    13B1     5.583163
      13B2     5.583163    23A1     6.103106     6A2     6.179268
      24A1     6.179294    14B1     6.589766    14B2     6.589766
      25A1     7.201756    26A1     8.815978

    Final Occupation by Irrep:
             A1    A2    B1    B2
    DOCC [     5,    0,    1,    1 ]
    SOCC [     0,    0,    0,    0 ]
    NA   [     5,    0,    1,    1 ]
    NB   [     5,    0,    1,    1 ]

  @DF-UKS Final Energy:  -113.25264202919153

   => Energetics <=

    Nuclear Repulsion Energy =             17.8838642966747230
    One-Electron Energy =                -189.4517625648781518
    Two-Electron Energy =                  69.3717530105117248
    DFT Exchange-Correlation Energy =     -11.0564967714998232
    Empirical Dispersion Energy =           0.0000000000000000
    VV10 Nonlocal Energy =                  0.0000000000000000
    Total Energy =                       -113.2526420291915343

  UHF NO Occupations:
  HONO-2 :    3 A1 2.0000000
  HONO-1 :    4 A1 2.0000000
  HONO-0 :    5 A1 2.0000000
  LUNO+0 :    6 A1 0.0000000
  LUNO+1 :    7 A1 0.0000000
  LUNO+2 :    8 A1 0.0000000
  LUNO+3 :    9 A1 0.0000000

Computation Completed

Properties will be evaluated at   0.000000,   0.000000,   0.000000 [a0]

Properties computed using the B3LYP density matrix

 Multipole Moments:

 ------------------------------------------------------------------------------------
     Multipole            Electronic (a.u.)      Nuclear  (a.u.)        Total (a.u.)
 ------------------------------------------------------------------------------------

 L = 1.  Multiply by 2.5417464519 to convert [e a0] to [Debye]
 Dipole X            :          0.0000000            0.0000000            0.0000000
 Dipole Y            :          0.0000000            0.0000000            0.0000000
 Dipole Z            :          0.3605108           -0.0029253            0.3575855
 Magnitude           :                                                    0.3575855

 L = 2.  Multiply by 1.3450342976 to convert [e a0^2] to [Debye ang]
 Quadrupole XX       :         -7.9874248            0.0000000           -7.9874248
 Quadrupole XY       :          0.0000000            0.0000000            0.0000000
 Quadrupole XZ       :          0.0000000            0.0000000            0.0000000
 Quadrupole YY       :         -7.9874248            0.0000000           -7.9874248
 Quadrupole YZ       :          0.0000000            0.0000000            0.0000000
 Quadrupole ZZ       :        -33.5507971           24.6986352           -8.8521619
 Traceless XX        :          8.5211241           -8.2328784            0.2882457
 Traceless YY        :          8.5211241           -8.2328784            0.2882457
 Traceless ZZ        :        -17.0422482           16.4657568           -0.5764914

 ------------------------------------------------------------------------------------
  ==> Computing MBIS Charges <==

  Electron Count from Grid (Expected Number): 14.00000 (14.00000)
  Difference: -0.00000

  MBIS Charges: (a.u.)
   Center  Symbol  Z      Pop.       Charge
      1       O    8    8.259311   -0.259311
      2       C    6    5.740688    0.259312

  MBIS Dipoles: [e a0]
   Center  Symbol  Z        X           Y           Z
      1       O    8   -0.000000   -0.000000   -0.114305
      2       C    6    0.000000    0.000000   -0.224099

  MBIS Quadrupoles: [e a0^2]
   Center  Symbol  Z      XX        XY        XZ        YY        YZ        ZZ
      1       O    8   -4.0237   -0.0000   -0.0000   -4.0237    0.0000   -4.0858
      2       C    6   -3.9638   -0.0000    0.0000   -3.9638    0.0000   -4.6086

  MBIS Octupoles: [e a0^3]
   Center  Symbol  Z      XXX       XXY       XXZ       XYY       XYZ       XZZ       YYY       YYZ       YZZ       ZZZ
      1       O    8    0.0000   -0.0000   -0.0945   -0.0000   -0.0000    0.0000   -0.0000   -0.0945   -0.0000   -0.3484
      2       C    6    0.0000    0.0000   -0.0436   -0.0000    0.0000    0.0000    0.0000   -0.0436    0.0000   -0.3013

  MBIS Radial Moments:
   Center  Symbol  Z      [a0^2]      [a0^3]      [a0^4]
      1       O    8   12.133160   23.103334   52.611212
      2       C    6   12.536126   30.175489   86.136968

  MBIS Valence Widths: [a0]
   Center  Symbol  Z     Width
      1       O    8    0.392749
      2       C    6    0.512367

*** tstop() called on Mac.lan at Sun Aug 10 17:18:30 2025
Module time:
	user time   =       3.28 seconds =       0.05 minutes
	system time =       2.76 seconds =       0.05 minutes
	total time  =          0 seconds =       0.00 minutes
Total time:
	user time   =      18.61 seconds =       0.31 minutes
	system time =       5.42 seconds =       0.09 minutes
	total time  =          2 seconds =       0.03 minutes

    Psi4 stopped on: Sunday, 10 August 2025 05:18PM
    Psi4 wall time for execution: 0:00:02.36

*** Psi4 exiting successfully. Buy a developer a beer!
