                               Psi4 1.9.1 release

  ==> Input File <==

--------------------------------------------------------------------------
molecule {
0 3
C           0.000000           0.000000           0.000000
C           0.000000           0.000000           1.163658
}

set {
basis              cc-pvtz
reference          uks
maxiter            500
DAMPING_PERCENTAGE 1
E_CONVERGENCE      1.0E-8
D_CONVERGENCE      1.0E-8
DIIS_MAX_VECS      400
MBIS_MAXITER       8000
guess              read
}

E, wfn = energy('b3lyp', restart_file='last_wfn', return_wfn=True)
properties('b3lyp','MBIS_CHARGES', wfn=wfn)
wfn.to_file('last_wfn')
--------------------------------------------------------------------------

    Molecular point group: d2h
  Charge       = 0
  Multiplicity = 3
  Basis Set: CC-PVTZ
    Blend: CC-PVTZ
  Basis Set: (CC-PVTZ AUX)
    Blend: CC-PVTZ-JKFIT
  @DF-UKS Final Energy:   -75.91446322748013
    Total Energy =                        -75.9144632274801126
 Dipole X            :          0.0000000            0.0000000            0.0000000
 Dipole Y            :          0.0000000            0.0000000            0.0000000
 Dipole Z            :          0.0000000            0.0000000            0.0000000
 Magnitude           :                                                    0.0000000
    Molecular point group: d2h

    Geometry (in Angstrom), charge = 0, multiplicity = 3:

       Center              X                  Y                   Z               Mass
    ------------   -----------------  -----------------  -----------------  -----------------
         C            0.000000000000     0.000000000000    -0.581829000000    12.000000000000
         C            0.000000000000     0.000000000000     0.581829000000    12.000000000000

  Charge       = 0
  Multiplicity = 3
  Basis Set: CC-PVTZ
    Blend: CC-PVTZ
  Basis Set: (CC-PVTZ AUX)
    Blend: CC-PVTZ-JKFIT

    Orbital Energies [Eh]
    ---------------------

    Alpha Occupied:

       1Ag   -10.265363     1B1u  -10.261726     2Ag    -0.875808
       2B1u   -0.431645     1B3u   -0.405428     1B2u   -0.366714
       3Ag    -0.361876

    Alpha Virtual:

       1B2g   -0.009162     1B3g    0.017366     3B1u    0.184915
       2B3u    0.243626     2B2u    0.259056     4Ag     0.259564
       5Ag     0.329165     2B2g    0.369013     2B3g    0.384019
       4B1u    0.537921     1B1g    0.539951     6Ag     0.540749
       5B1u    0.697317     3B3u    0.760179     3B2u    0.783793
       1Au     0.868863     6B1u    0.869710     3B2g    1.125100
       7Ag     1.126440     3B3g    1.140144     7B1u    1.494844
       4B3u    1.863520     4B2u    1.892244     8Ag     2.057906
       4B2g    2.203671     4B3g    2.232760     8B1u    2.319805
       2B1g    2.400210     9Ag     2.401376     5B3u    2.438756
       5B2u    2.438896     6B3u    2.480334     6B2u    2.511939
      10Ag     2.738076     5B2g    2.888941     5B3g    2.889209
       3B1g    2.920909    11Ag     2.921607     6B2g    2.927822
       6B3g    2.947059     9B1u    2.992583     2Au     2.992686
      10B1u    3.368332     7B3u    3.506144     7B2u    3.532443
      12Ag     3.542168     3Au     3.599260    11B1u    3.600028
      12B1u    4.143337     7B2g    4.760265     7B3g    4.790285
      13Ag     5.162681    13B1u   14.260201

    Beta Occupied:

       1Ag   -10.248206     1B1u  -10.245090     2Ag    -0.802911
       1B2u   -0.346466     2B1u   -0.341976

    Beta Virtual:

       1B3u   -0.245582     3Ag    -0.211258     1B3g    0.039750
       1B2g    0.060150     3B1u    0.197556     2B2u    0.265203
       2B3u    0.274255     4Ag     0.280346     5Ag     0.366504
       2B3g    0.393534     2B2g    0.404520     1B1g    0.569457
       6Ag     0.572223     4B1u    0.574270     5B1u    0.737572
       3B2u    0.811435     3B3u    0.814586     1Au     0.893280
       6B1u    0.895204     3B3g    1.159167     3B2g    1.162086
       7Ag     1.166208     7B1u    1.545048     4B2u    1.906087
       4B3u    1.919071     8Ag     2.105694     4B3g    2.245870
       4B2g    2.254854     8B1u    2.368518     2B1g    2.441986
       9Ag     2.445220     5B2u    2.475353     5B3u    2.476381
       6B2u    2.549513     6B3u    2.562770    10Ag     2.812920
       5B3g    2.924964     5B2g    2.925995     3B1g    2.969858
      11Ag     2.974335     6B3g    2.994985     6B2g    3.000911
       2Au     3.039362     9B1u    3.043840    10B1u    3.426399
       7B2u    3.573700     7B3u    3.577992    12Ag     3.583813
       3Au     3.640884    11B1u    3.644111    12B1u    4.203188
       7B3g    4.821474     7B2g    4.832311    13Ag     5.204650
      13B1u   14.286377

    Final Occupation by Irrep:
             Ag   B1g   B2g   B3g    Au   B1u   B2u   B3u
    DOCC [     2,    0,    0,    0,    0,    2,    1,    0 ]
    SOCC [     1,    0,    0,    0,    0,    0,    0,    1 ]
    NA   [     3,    0,    0,    0,    0,    2,    1,    1 ]
    NB   [     2,    0,    0,    0,    0,    2,    1,    0 ]

  @DF-UKS Final Energy:   -75.91446322751349

   => Energetics <=

    Nuclear Repulsion Energy =             16.3711155546732812
    One-Electron Energy =                -133.3784544904090410
    Two-Electron Energy =                  49.7494937090467886
    DFT Exchange-Correlation Energy =      -8.6566180008245173
    Empirical Dispersion Energy =           0.0000000000000000
    VV10 Nonlocal Energy =                  0.0000000000000000
    Total Energy =                        -75.9144632275134938

  UHF NO Occupations:
  HONO-2 :    2B1u 1.9984936
  HONO-1 :    3 Ag 1.0000000
  HONO-0 :    1B3u 1.0000000
  LUNO+0 :    3B1u 0.0015064
  LUNO+1 :    4 Ag 0.0003708
  LUNO+2 :    2B2u 0.0001374
  LUNO+3 :    4B1u 0.0000007

Computation Completed

Properties will be evaluated at   0.000000,   0.000000,   0.000000 [a0]

Properties computed using the B3LYP density matrix

 Multipole Moments:

 ------------------------------------------------------------------------------------
     Multipole            Electronic (a.u.)      Nuclear  (a.u.)        Total (a.u.)
 ------------------------------------------------------------------------------------

 L = 1.  Multiply by 2.5417464519 to convert [e a0] to [Debye]
 Dipole X            :          0.0000000            0.0000000            0.0000000
 Dipole Y            :          0.0000000            0.0000000            0.0000000
 Dipole Z            :          0.0000000            0.0000000            0.0000000
 Magnitude           :                                                    0.0000000

 L = 2.  Multiply by 1.3450342976 to convert [e a0^2] to [Debye ang]
 Quadrupole XX       :         -7.5720185            0.0000000           -7.5720185
 Quadrupole XY       :          0.0000000            0.0000000            0.0000000
 Quadrupole XZ       :          0.0000000            0.0000000            0.0000000
 Quadrupole YY       :         -8.9056336            0.0000000           -8.9056336
 Quadrupole YZ       :          0.0000000            0.0000000            0.0000000
 Quadrupole ZZ       :        -23.7546694           14.5067360           -9.2479334
 Traceless XX        :          5.8387553           -4.8355787            1.0031767
 Traceless YY        :          4.5051403           -4.8355787           -0.3304384
 Traceless ZZ        :        -10.3438956            9.6711573           -0.6727382

 ------------------------------------------------------------------------------------
  ==> Computing MBIS Charges <==

  Electron Count from Grid (Expected Number): 12.00000 (12.00000)
  Difference: -0.00000

  MBIS Charges: (a.u.)
   Center  Symbol  Z      Pop.       Charge
      1       C    6    6.000000    0.000000
      2       C    6    6.000000    0.000000

  MBIS Dipoles: [e a0]
   Center  Symbol  Z        X           Y           Z
      1       C    6   -0.000000    0.000000   -0.012527
      2       C    6    0.000000    0.000000    0.012527

  MBIS Quadrupoles: [e a0^2]
   Center  Symbol  Z      XX        XY        XZ        YY        YZ        ZZ
      1       C    6   -3.7860   -0.0000    0.0000   -4.4528   -0.0000   -4.6515
      2       C    6   -3.7860    0.0000   -0.0000   -4.4528    0.0000   -4.6515

  MBIS Octupoles: [e a0^3]
   Center  Symbol  Z      XXX       XXY       XXZ       XYY       XYZ       XZZ       YYY       YYZ       YZZ       ZZZ
      1       C    6   -0.0000    0.0000    0.1682    0.0000    0.0000   -0.0000    0.0000   -0.0318    0.0000    0.2708
      2       C    6   -0.0000    0.0000   -0.1682    0.0000   -0.0000   -0.0000    0.0000    0.0318    0.0000   -0.2708

  MBIS Radial Moments:
   Center  Symbol  Z      [a0^2]      [a0^3]      [a0^4]
      1       C    6   12.890339   30.806995   88.110977
      2       C    6   12.890339   30.806995   88.110977

  MBIS Valence Widths: [a0]
   Center  Symbol  Z     Width
      1       C    6    0.500827
      2       C    6    0.500827

*** tstop() called on Mac.lan at Sun Aug 10 17:03:21 2025
Module time:
	user time   =       3.65 seconds =       0.06 minutes
	system time =       2.51 seconds =       0.04 minutes
	total time  =          0 seconds =       0.00 minutes
Total time:
	user time   =      15.35 seconds =       0.26 minutes
	system time =       4.86 seconds =       0.08 minutes
	total time  =          2 seconds =       0.03 minutes

    Psi4 stopped on: Sunday, 10 August 2025 05:03PM
    Psi4 wall time for execution: 0:00:01.97

*** Psi4 exiting successfully. Buy a developer a beer!
