                               Psi4 1.9.1 release

  ==> Input File <==

--------------------------------------------------------------------------
molecule {
0 3
C           0.000000           0.000000           0.000000
C           0.000000           0.000000           1.307122
}

set {
basis              cc-pvtz
reference          uks
maxiter            500
DAMPING_PERCENTAGE 1
E_CONVERGENCE      1.0E-8
D_CONVERGENCE      1.0E-8
DIIS_MAX_VECS      400
MBIS_MAXITER       8000
guess              read
}

E, wfn = energy('b3lyp', restart_file='last_wfn', return_wfn=True)
properties('b3lyp','MBIS_CHARGES', wfn=wfn)
wfn.to_file('last_wfn')
--------------------------------------------------------------------------

    Molecular point group: d2h
  Charge       = 0
  Multiplicity = 3
  Basis Set: CC-PVTZ
    Blend: CC-PVTZ
  Basis Set: (CC-PVTZ AUX)
    Blend: CC-PVTZ-JKFIT
  @DF-UKS Final Energy:   -75.94408096176483
    Total Energy =                        -75.9440809617648256
 Dipole X            :          0.0000000            0.0000000            0.0000000
 Dipole Y            :          0.0000000            0.0000000            0.0000000
 Dipole Z            :          0.0000000           -0.0000000           -0.0000000
 Magnitude           :                                                    0.0000000
    Molecular point group: d2h

    Geometry (in Angstrom), charge = 0, multiplicity = 3:

       Center              X                  Y                   Z               Mass
    ------------   -----------------  -----------------  -----------------  -----------------
         C            0.000000000000     0.000000000000    -0.653561000000    12.000000000000
         C            0.000000000000     0.000000000000     0.653561000000    12.000000000000

  Charge       = 0
  Multiplicity = 3
  Basis Set: CC-PVTZ
    Blend: CC-PVTZ
  Basis Set: (CC-PVTZ AUX)
    Blend: CC-PVTZ-JKFIT

    Orbital Energies [Eh]
    ---------------------

    Alpha Occupied:

       1Ag   -10.292360     1B1u  -10.291140     2Ag    -0.829301
       2B1u   -0.455757     1B3u   -0.373082     3Ag    -0.359594
       1B2u   -0.337899

    Alpha Virtual:

       1B2g   -0.052075     1B3g   -0.024785     3B1u    0.178551
       2B3u    0.255414     4Ag     0.267963     2B2u    0.270651
       5Ag     0.323493     2B2g    0.356165     2B3g    0.369951
       4B1u    0.463909     1B1g    0.544123     6Ag     0.544845
       5B1u    0.610353     3B3u    0.707109     3B2u    0.731018
       1Au     0.838636     6B1u    0.839122     3B2g    1.113072
       3B3g    1.128650     7Ag     1.138253     7B1u    1.288946
       4B3u    1.883760     4B2u    1.909829     8Ag     2.000454
       4B2g    2.118385     4B3g    2.146482     8B1u    2.338134
       2B1g    2.376169     9Ag     2.376995     5B3u    2.406125
       5B2u    2.435792     6B3u    2.481301     6B2u    2.481476
      10Ag     2.660521     5B2g    2.818388     5B3g    2.818501
       3B1g    2.891313    11Ag     2.891771     9B1u    2.983360
       2Au     2.983589     6B2g    2.983684     6B3g    3.003522
      10B1u    3.169989     7B3u    3.360692     7B2u    3.386054
       3Au     3.399309    11B1u    3.400269    12Ag     3.643935
      12B1u    3.846908     7B2g    4.415847     7B3g    4.443927
      13Ag     4.504899    13B1u   11.198801

    Beta Occupied:

       1Ag   -10.276030     1B1u  -10.275125     2Ag    -0.761104
       2B1u   -0.366950     1B2u   -0.319283

    Beta Virtual:

       1B3u   -0.223485     3Ag    -0.209501     1B3g   -0.002796
       1B2g    0.022046     3B1u    0.191353     2B2u    0.276571
       2B3u    0.286194     4Ag     0.290338     5Ag     0.358868
       2B3g    0.377661     2B2g    0.387477     4B1u    0.525453
       1B1g    0.572163     6Ag     0.574759     5B1u    0.631639
       3B2u    0.758845     3B3u    0.763749     1Au     0.862913
       6B1u    0.864890     3B3g    1.149371     3B2g    1.152157
       7Ag     1.178675     7B1u    1.332116     4B2u    1.922879
       4B3u    1.935990     8Ag     2.048440     4B3g    2.158939
       4B2g    2.168713     8B1u    2.386990     2B1g    2.417269
       9Ag     2.419995     5B2u    2.469058     5B3u    2.481722
       6B2u    2.515899     6B3u    2.516847    10Ag     2.732721
       5B3g    2.852281     5B2g    2.853233     3B1g    2.937280
      11Ag     2.941888     2Au     3.026743     9B1u    3.031348
       6B3g    3.051881     6B2g    3.060575    10B1u    3.227298
       7B2u    3.429618     7B3u    3.436071     3Au     3.441168
      11B1u    3.443965    12Ag     3.686166    12B1u    3.907471
       7B3g    4.473911     7B2g    4.483626    13Ag     4.547846
      13B1u   11.226034

    Final Occupation by Irrep:
             Ag   B1g   B2g   B3g    Au   B1u   B2u   B3u
    DOCC [     2,    0,    0,    0,    0,    2,    1,    0 ]
    SOCC [     1,    0,    0,    0,    0,    0,    0,    1 ]
    NA   [     3,    0,    0,    0,    0,    2,    1,    1 ]
    NB   [     2,    0,    0,    0,    0,    2,    1,    0 ]

  @DF-UKS Final Energy:   -75.94408096180693

   => Energetics <=

    Nuclear Repulsion Energy =             14.5742934355936242
    One-Electron Energy =                -129.9264539653499355
    Two-Electron Energy =                  47.9682284846245253
    DFT Exchange-Correlation Energy =      -8.5601489166751605
    Empirical Dispersion Energy =           0.0000000000000000
    VV10 Nonlocal Energy =                  0.0000000000000000
    Total Energy =                        -75.9440809618069466

  UHF NO Occupations:
  HONO-2 :    2B1u 1.9984521
  HONO-1 :    1B3u 1.0000000
  HONO-0 :    3 Ag 1.0000000
  LUNO+0 :    3B1u 0.0015479
  LUNO+1 :    4 Ag 0.0003755
  LUNO+2 :    2B2u 0.0001545
  LUNO+3 :    4B1u 0.0000006

Computation Completed

Properties will be evaluated at   0.000000,   0.000000,   0.000000 [a0]

Properties computed using the B3LYP density matrix

 Multipole Moments:

 ------------------------------------------------------------------------------------
     Multipole            Electronic (a.u.)      Nuclear  (a.u.)        Total (a.u.)
 ------------------------------------------------------------------------------------

 L = 1.  Multiply by 2.5417464519 to convert [e a0] to [Debye]
 Dipole X            :          0.0000000            0.0000000            0.0000000
 Dipole Y            :          0.0000000            0.0000000            0.0000000
 Dipole Z            :          0.0000000           -0.0000000           -0.0000000
 Magnitude           :                                                    0.0000000

 L = 2.  Multiply by 1.3450342976 to convert [e a0^2] to [Debye ang]
 Quadrupole XX       :         -7.8792367            0.0000000           -7.8792367
 Quadrupole XY       :          0.0000000            0.0000000            0.0000000
 Quadrupole XZ       :          0.0000000            0.0000000            0.0000000
 Quadrupole YY       :         -9.3260632            0.0000000           -9.3260632
 Quadrupole YZ       :          0.0000000            0.0000000            0.0000000
 Quadrupole ZZ       :        -27.4459497           18.3042205           -9.1417292
 Traceless XX        :          7.0045132           -6.1014068            0.9031064
 Traceless YY        :          5.5576866           -6.1014068           -0.5437202
 Traceless ZZ        :        -12.5621998           12.2028136           -0.3593862

 ------------------------------------------------------------------------------------
  ==> Computing MBIS Charges <==

  Electron Count from Grid (Expected Number): 12.00000 (12.00000)
  Difference:  0.00000

  MBIS Charges: (a.u.)
   Center  Symbol  Z      Pop.       Charge
      1       C    6    6.000000   -0.000000
      2       C    6    6.000000   -0.000000

  MBIS Dipoles: [e a0]
   Center  Symbol  Z        X           Y           Z
      1       C    6   -0.000000    0.000000   -0.055946
      2       C    6   -0.000000    0.000000    0.055946

  MBIS Quadrupoles: [e a0^2]
   Center  Symbol  Z      XX        XY        XZ        YY        YZ        ZZ
      1       C    6   -3.9396    0.0000   -0.0000   -4.6630   -0.0000   -4.7091
      2       C    6   -3.9396    0.0000    0.0000   -4.6630    0.0000   -4.7091

  MBIS Octupoles: [e a0^3]
   Center  Symbol  Z      XXX       XXY       XXZ       XYY       XYZ       XZZ       YYY       YYZ       YZZ       ZZZ
      1       C    6   -0.0000    0.0000    0.0478   -0.0000   -0.0000   -0.0000    0.0000   -0.1776    0.0000   -0.1133
      2       C    6   -0.0000    0.0000   -0.0478   -0.0000    0.0000    0.0000    0.0000    0.1776    0.0000    0.1133

  MBIS Radial Moments:
   Center  Symbol  Z      [a0^2]      [a0^3]      [a0^4]
      1       C    6   13.311707   32.241342   93.226025
      2       C    6   13.311707   32.241342   93.226025

  MBIS Valence Widths: [a0]
   Center  Symbol  Z     Width
      1       C    6    0.510248
      2       C    6    0.510248

*** tstop() called on Mac.lan at Sun Aug 10 17:03:06 2025
Module time:
	user time   =       3.86 seconds =       0.06 minutes
	system time =       2.17 seconds =       0.04 minutes
	total time  =          1 seconds =       0.02 minutes
Total time:
	user time   =      16.12 seconds =       0.27 minutes
	system time =       4.72 seconds =       0.08 minutes
	total time  =          2 seconds =       0.03 minutes

    Psi4 stopped on: Sunday, 10 August 2025 05:03PM
    Psi4 wall time for execution: 0:00:02.03

*** Psi4 exiting successfully. Buy a developer a beer!
