                               Psi4 1.9.1 release

  ==> Input File <==

--------------------------------------------------------------------------
molecule {
0 1
O           0.000000           0.000000           0.000000
C           0.000000           0.000000           1.110043
}

set {
basis              cc-pvtz
reference          uks
maxiter            500
DAMPING_PERCENTAGE 1
E_CONVERGENCE      1.0E-8
D_CONVERGENCE      1.0E-8
DIIS_MAX_VECS      400
MBIS_MAXITER       8000
guess              read
}

E, wfn = energy('b3lyp', restart_file='last_wfn', return_wfn=True)
properties('b3lyp','MBIS_CHARGES', wfn=wfn)
wfn.to_file('last_wfn')
--------------------------------------------------------------------------

    Molecular point group: c2v
  Charge       = 0
  Multiplicity = 1
  Basis Set: CC-PVTZ
    Blend: CC-PVTZ
  Basis Set: (CC-PVTZ AUX)
    Blend: CC-PVTZ-JKFIT
  @DF-UKS Final Energy:  -113.35662832738089
    Total Energy =                       -113.3566283273808892
 Dipole X            :          0.0000000            0.0000000            0.0000000
 Dipole Y            :          0.0000000            0.0000000            0.0000000
 Dipole Z            :         -0.0690330           -0.0022863           -0.0713193
 Magnitude           :                                                    0.0713193
    Molecular point group: c2v

    Geometry (in Angstrom), charge = 0, multiplicity = 1:

       Center              X                  Y                   Z               Mass
    ------------   -----------------  -----------------  -----------------  -----------------
         O            0.000000000000     0.000000000000    -0.475819132904    15.994914619570
         C            0.000000000000     0.000000000000     0.634223867096    12.000000000000

  Charge       = 0
  Multiplicity = 1
  Basis Set: CC-PVTZ
    Blend: CC-PVTZ
  Basis Set: (CC-PVTZ AUX)
    Blend: CC-PVTZ-JKFIT

    Orbital Energies [Eh]
    ---------------------

    Alpha Occupied:

       1A1   -19.238339     2A1   -10.288212     3A1    -1.180847
       4A1    -0.582091     1B2    -0.488488     1B1    -0.488488
       5A1    -0.381992

    Alpha Virtual:

       2B1    -0.026880     2B2    -0.026880     6A1     0.157963
       3B2     0.287316     3B1     0.287316     7A1     0.302734
       8A1     0.535637     4B1     0.611167     4B2     0.611167
       9A1     0.619168    10A1     0.633120     1A2     0.633120
       5B1     0.861633     5B2     0.861633    11A1     1.113899
      12A1     1.329256     2A2     1.499593    13A1     1.499593
       6B1     1.882259     6B2     1.882259    14A1     1.917556
       7B1     1.974551     7B2     1.974551    15A1     2.452420
       8B1     2.631289     8B2     2.631289    16A1     2.816237
       3A2     2.816237    17A1     2.930022     4A2     2.930022
       9B1     2.962919     9B2     2.962919    18A1     3.082812
      10B1     3.232901    10B2     3.232901    19A1     3.385801
      11B1     4.071460    11B2     4.071460    20A1     4.474186
      12B1     5.069047    12B2     5.069047     5A2     5.494409
      21A1     5.494410    22A1     6.112635    23A1     6.218303
       6A2     6.218311    13B2     6.269925    13B1     6.269925
      14B1     6.719619    14B2     6.719619    24A1     6.756470
      25A1     7.039219    26A1    12.460140

    Beta Occupied:

       1A1   -19.238339     2A1   -10.288212     3A1    -1.180847
       4A1    -0.582091     1B2    -0.488488     1B1    -0.488488
       5A1    -0.381992

    Beta Virtual:

       2B1    -0.026880     2B2    -0.026880     6A1     0.157963
       3B2     0.287316     3B1     0.287316     7A1     0.302734
       8A1     0.535637     4B1     0.611167     4B2     0.611167
       9A1     0.619168    10A1     0.633120     1A2     0.633120
       5B1     0.861633     5B2     0.861633    11A1     1.113899
      12A1     1.329256     2A2     1.499593    13A1     1.499593
       6B1     1.882259     6B2     1.882259    14A1     1.917556
       7B1     1.974551     7B2     1.974551    15A1     2.452420
       8B1     2.631289     8B2     2.631289    16A1     2.816237
       3A2     2.816237    17A1     2.930022     4A2     2.930022
       9B1     2.962919     9B2     2.962919    18A1     3.082812
      10B1     3.232901    10B2     3.232901    19A1     3.385801
      11B1     4.071460    11B2     4.071460    20A1     4.474186
      12B1     5.069047    12B2     5.069047     5A2     5.494409
      21A1     5.494410    22A1     6.112635    23A1     6.218303
       6A2     6.218311    13B2     6.269925    13B1     6.269925
      14B1     6.719619    14B2     6.719619    24A1     6.756470
      25A1     7.039219    26A1    12.460140

    Final Occupation by Irrep:
             A1    A2    B1    B2
    DOCC [     5,    0,    1,    1 ]
    SOCC [     0,    0,    0,    0 ]
    NA   [     5,    0,    1,    1 ]
    NB   [     5,    0,    1,    1 ]

  @DF-UKS Final Energy:  -113.35662832745088

   => Energetics <=

    Nuclear Repulsion Energy =             22.8824524024384672
    One-Electron Energy =                -199.0909916563467164
    Two-Electron Energy =                  74.1008064705358436
    DFT Exchange-Correlation Energy =     -11.2488955440784810
    Empirical Dispersion Energy =           0.0000000000000000
    VV10 Nonlocal Energy =                  0.0000000000000000
    Total Energy =                       -113.3566283274508777

  UHF NO Occupations:
  HONO-2 :    4 A1 2.0000000
  HONO-1 :    5 A1 2.0000000
  HONO-0 :    1 B1 2.0000000
  LUNO+0 :    6 A1 0.0000000
  LUNO+1 :    7 A1 0.0000000
  LUNO+2 :    8 A1 0.0000000
  LUNO+3 :    9 A1 0.0000000

Computation Completed

Properties will be evaluated at   0.000000,   0.000000,   0.000000 [a0]

Properties computed using the B3LYP density matrix

 Multipole Moments:

 ------------------------------------------------------------------------------------
     Multipole            Electronic (a.u.)      Nuclear  (a.u.)        Total (a.u.)
 ------------------------------------------------------------------------------------

 L = 1.  Multiply by 2.5417464519 to convert [e a0] to [Debye]
 Dipole X            :          0.0000000            0.0000000            0.0000000
 Dipole Y            :          0.0000000            0.0000000            0.0000000
 Dipole Z            :         -0.0690330           -0.0022863           -0.0713193
 Magnitude           :                                                    0.0713193

 L = 2.  Multiply by 1.3450342976 to convert [e a0^2] to [Debye ang]
 Quadrupole XX       :         -7.5484326            0.0000000           -7.5484326
 Quadrupole XY       :          0.0000000            0.0000000            0.0000000
 Quadrupole XZ       :          0.0000000            0.0000000            0.0000000
 Quadrupole YY       :         -7.5484326            0.0000000           -7.5484326
 Quadrupole YZ       :          0.0000000            0.0000000            0.0000000
 Quadrupole ZZ       :        -24.1641831           15.0865714           -9.0776117
 Traceless XX        :          5.5385835           -5.0288571            0.5097264
 Traceless YY        :          5.5385835           -5.0288571            0.5097264
 Traceless ZZ        :        -11.0771670           10.0577143           -1.0194527

 ------------------------------------------------------------------------------------
  ==> Computing MBIS Charges <==

  Electron Count from Grid (Expected Number): 14.00000 (14.00000)
  Difference:  0.00000

  MBIS Charges: (a.u.)
   Center  Symbol  Z      Pop.       Charge
      1       O    8    8.125660   -0.125660
      2       C    6    5.874341    0.125659

  MBIS Dipoles: [e a0]
   Center  Symbol  Z        X           Y           Z
      1       O    8   -0.000000   -0.000000   -0.049220
      2       C    6    0.000000    0.000000   -0.285691

  MBIS Quadrupoles: [e a0^2]
   Center  Symbol  Z      XX        XY        XZ        YY        YZ        ZZ
      1       O    8   -3.5874   -0.0000   -0.0000   -3.5874    0.0000   -3.8052
      2       C    6   -3.9610   -0.0000    0.0000   -3.9610    0.0000   -4.7550

  MBIS Octupoles: [e a0^3]
   Center  Symbol  Z      XXX       XXY       XXZ       XYY       XYZ       XZZ       YYY       YYZ       YZZ       ZZZ
      1       O    8   -0.0000   -0.0000    0.0160    0.0000    0.0000    0.0000   -0.0000    0.0160   -0.0000   -0.0426
      2       C    6    0.0000   -0.0000   -0.2689    0.0000    0.0000    0.0000    0.0000   -0.2689    0.0000   -0.8428

  MBIS Radial Moments:
   Center  Symbol  Z      [a0^2]      [a0^3]      [a0^4]
      1       O    8   10.980042   20.005694   43.726750
      2       C    6   12.677047   30.288779   85.791723

  MBIS Valence Widths: [a0]
   Center  Symbol  Z     Width
      1       O    8    0.376835
      2       C    6    0.505394

*** tstop() called on Mac.lan at Sun Aug 10 17:16:34 2025
Module time:
	user time   =       4.09 seconds =       0.07 minutes
	system time =       1.86 seconds =       0.03 minutes
	total time  =          0 seconds =       0.00 minutes
Total time:
	user time   =      17.30 seconds =       0.29 minutes
	system time =       4.06 seconds =       0.07 minutes
	total time  =          2 seconds =       0.03 minutes

    Psi4 stopped on: Sunday, 10 August 2025 05:16PM
    Psi4 wall time for execution: 0:00:02.07

*** Psi4 exiting successfully. Buy a developer a beer!
