                               Psi4 1.9.1 release

  ==> Input File <==

--------------------------------------------------------------------------
molecule {
0 2
O           0.000000           0.000000           0.000000
H           0.000000           0.000000           0.924881
}

set {
basis              cc-pvtz
reference          uks
maxiter            500
DAMPING_PERCENTAGE 1
E_CONVERGENCE      1.0E-8
D_CONVERGENCE      1.0E-8
DIIS_MAX_VECS      400
MBIS_MAXITER       8000
guess              read
}

E, wfn = energy('b3lyp', restart_file='last_wfn', return_wfn=True)
properties('b3lyp','MBIS_CHARGES', wfn=wfn)
wfn.to_file('last_wfn')
--------------------------------------------------------------------------

    Molecular point group: c2v
  Charge       = 0
  Multiplicity = 2
  Basis Set: CC-PVTZ
    Blend: CC-PVTZ
  Basis Set: (CC-PVTZ AUX)
    Blend: CC-PVTZ-JKFIT
  @DF-UKS Final Energy:   -75.76170072761835
    Total Energy =                        -75.7617007276183756
 Dipole X            :          0.0000000            0.0000000            0.0000000
 Dipole Y            :          0.0000000            0.0000000            0.0000000
 Dipole Z            :         -0.1603120            0.8153907            0.6550787
 Magnitude           :                                                    0.6550787
    Molecular point group: c2v

    Geometry (in Angstrom), charge = 0, multiplicity = 2:

       Center              X                  Y                   Z               Mass
    ------------   -----------------  -----------------  -----------------  -----------------
         O            0.000000000000     0.000000000000    -0.054821648906    15.994914619570
         H            0.000000000000     0.000000000000     0.870059351094     1.007825032230

  Charge       = 0
  Multiplicity = 2
  Basis Set: CC-PVTZ
    Blend: CC-PVTZ
  Basis Set: (CC-PVTZ AUX)
    Blend: CC-PVTZ-JKFIT

    Orbital Energies [Eh]
    ---------------------

    Alpha Occupied:

       1A1   -19.192992     2A1    -1.032245     3A1    -0.484667
       1B1    -0.419263     1B2    -0.346465

    Alpha Virtual:

       4A1     0.037394     5A1     0.394752     6A1     0.510478
       2B1     0.528844     2B2     0.564634     3B1     0.694343
       3B2     0.710614     7A1     0.855184     8A1     1.307181
       1A2     1.417512     9A1     1.418107     4B1     1.749899
       4B2     1.788395    10A1     1.846786    11A1     2.464327
       2A2     3.199897    12A1     3.200065     5B1     3.334827
       5B2     3.372326     6B1     3.590084     6B2     3.621395
      13A1     3.726606     7B1     4.081315     7B2     4.114407
      14A1     4.426323    15A1     4.677552     8B1     5.066674
       8B2     5.066935     3A2     5.397131    16A1     5.397773
      17A1     6.136328     4A2     6.136495     9B1     6.314892
       9B2     6.374370    18A1     6.473861    10B1     6.684443
      10B2     6.727050    19A1     7.058826    20A1    10.584215

    Beta Occupied:

       1A1   -19.167786     2A1    -0.963037     3A1    -0.458146
       1B2    -0.320972

    Beta Virtual:

       1B1    -0.172359     4A1     0.043492     5A1     0.401961
       6A1     0.518073     2B2     0.575218     2B1     0.602293
       3B1     0.709889     3B2     0.709924     7A1     0.882368
       8A1     1.320668     1A2     1.469715     9A1     1.475716
       4B2     1.794433     4B1     1.799670    10A1     1.861431
      11A1     2.472389     2A2     3.207437    12A1     3.208186
       5B2     3.378505     5B1     3.391800     6B2     3.627359
       6B1     3.640761    13A1     3.730906     7B2     4.119618
       7B1     4.123705    14A1     4.453687    15A1     4.705852
       8B2     5.136825     8B1     5.139807     3A2     5.442165
      16A1     5.447178     4A2     6.228055    17A1     6.242398
       9B2     6.388346     9B1     6.410280    18A1     6.498060
      10B2     6.732928    10B1     6.735331    19A1     7.084776
      20A1    10.618309

    Final Occupation by Irrep:
             A1    A2    B1    B2
    DOCC [     3,    0,    0,    1 ]
    SOCC [     0,    0,    1,    0 ]
    NA   [     3,    0,    1,    1 ]
    NB   [     3,    0,    0,    1 ]

  @DF-UKS Final Energy:   -75.76170072779287

   => Energetics <=

    Nuclear Repulsion Energy =              4.5772566258361893
    One-Electron Energy =                -113.1103731233418728
    Two-Electron Energy =                  39.9821615604270377
    DFT Exchange-Correlation Energy =      -7.2107457907142161
    Empirical Dispersion Energy =           0.0000000000000000
    VV10 Nonlocal Energy =                  0.0000000000000000
    Total Energy =                        -75.7617007277928565

  UHF NO Occupations:
  HONO-2 :    2 A1 1.9997905
  HONO-1 :    3 A1 1.9993297
  HONO-0 :    1 B1 1.0000000
  LUNO+0 :    4 A1 0.0006703
  LUNO+1 :    5 A1 0.0002095
  LUNO+2 :    2 B2 0.0001523
  LUNO+3 :    6 A1 0.0000006

Computation Completed

Properties will be evaluated at   0.000000,   0.000000,   0.000000 [a0]

Properties computed using the B3LYP density matrix

 Multipole Moments:

 ------------------------------------------------------------------------------------
     Multipole            Electronic (a.u.)      Nuclear  (a.u.)        Total (a.u.)
 ------------------------------------------------------------------------------------

 L = 1.  Multiply by 2.5417464519 to convert [e a0] to [Debye]
 Dipole X            :          0.0000000            0.0000000            0.0000000
 Dipole Y            :          0.0000000            0.0000000            0.0000000
 Dipole Z            :         -0.1603120            0.8153907            0.6550787
 Magnitude           :                                                    0.6550787

 L = 2.  Multiply by 1.3450342976 to convert [e a0^2] to [Debye ang]
 Quadrupole XX       :         -3.9722981            0.0000000           -3.9722981
 Quadrupole XY       :          0.0000000            0.0000000            0.0000000
 Quadrupole XZ       :          0.0000000            0.0000000            0.0000000
 Quadrupole YY       :         -4.8646461            0.0000000           -4.8646461
 Quadrupole YZ       :          0.0000000            0.0000000            0.0000000
 Quadrupole ZZ       :         -6.1231798            2.7891680           -3.3340119
 Traceless XX        :          1.0144099           -0.9297227            0.0846872
 Traceless YY        :          0.1220619           -0.9297227           -0.8076607
 Traceless ZZ        :         -1.1364718            1.8594453            0.7229735

 ------------------------------------------------------------------------------------
  ==> Computing MBIS Charges <==

  Electron Count from Grid (Expected Number):  9.00000 ( 9.00000)
  Difference: -0.00000

  MBIS Charges: (a.u.)
   Center  Symbol  Z      Pop.       Charge
      1       O    8    8.389999   -0.389999
      2       H    1    0.610001    0.389999

  MBIS Dipoles: [e a0]
   Center  Symbol  Z        X           Y           Z
      1       O    8    0.000000   -0.000000   -0.054615
      2       H    1    0.000000    0.000000    0.028066

  MBIS Quadrupoles: [e a0^2]
   Center  Symbol  Z      XX        XY        XZ        YY        YZ        ZZ
      1       O    8   -3.7001   -0.0000    0.0000   -4.5571   -0.0000   -4.2040
      2       H    1   -0.2722    0.0000   -0.0000   -0.3076   -0.0000   -0.2838

  MBIS Octupoles: [e a0^3]
   Center  Symbol  Z      XXX       XXY       XXZ       XYY       XYZ       XZZ       YYY       YYZ       YZZ       ZZZ
      1       O    8    0.0000   -0.0000   -0.0309    0.0000   -0.0000    0.0000   -0.0000   -0.0542   -0.0000   -0.2992
      2       H    1    0.0000   -0.0000   -0.0043    0.0000    0.0000   -0.0000   -0.0000    0.0075   -0.0000    0.0133

  MBIS Radial Moments:
   Center  Symbol  Z      [a0^2]      [a0^3]      [a0^4]
      1       O    8   12.461120   23.895752   54.774024
      2       H    1    0.863542    1.478145    3.025061

  MBIS Valence Widths: [a0]
   Center  Symbol  Z     Width
      1       O    8    0.393685
      2       H    1    0.344219

*** tstop() called on Mac.lan at Sun Aug 10 17:10:27 2025
Module time:
	user time   =       2.71 seconds =       0.05 minutes
	system time =       2.51 seconds =       0.04 minutes
	total time  =          0 seconds =       0.00 minutes
Total time:
	user time   =      12.09 seconds =       0.20 minutes
	system time =       4.49 seconds =       0.07 minutes
	total time  =          1 seconds =       0.02 minutes

    Psi4 stopped on: Sunday, 10 August 2025 05:10PM
    Psi4 wall time for execution: 0:00:01.62

*** Psi4 exiting successfully. Buy a developer a beer!
