                               Psi4 1.9.1 release

  ==> Input File <==

--------------------------------------------------------------------------
molecule {
0 2
O           0.000000           0.000000           0.000000
N           0.000000           0.000000           0.813860
}

set {
basis              cc-pvtz
reference          uks
maxiter            500
DAMPING_PERCENTAGE 1
E_CONVERGENCE      1.0E-8
D_CONVERGENCE      1.0E-8
DIIS_MAX_VECS      400
MBIS_MAXITER       8000
guess              read
}

E, wfn = energy('b3lyp', restart_file='last_wfn', return_wfn=True)
properties('b3lyp','MBIS_CHARGES', wfn=wfn)
wfn.to_file('last_wfn')
--------------------------------------------------------------------------

    Molecular point group: c2v
  Charge       = 0
  Multiplicity = 2
  Basis Set: CC-PVTZ
    Blend: CC-PVTZ
  Basis Set: (CC-PVTZ AUX)
    Blend: CC-PVTZ-JKFIT
  @DF-UKS Final Energy:  -129.40643445544342
    Total Energy =                       -129.4064344554434172
 Dipole X            :          0.0000000            0.0000000            0.0000000
 Dipole Y            :          0.0000000            0.0000000            0.0000000
 Dipole Z            :         -0.4175016           -0.0030859           -0.4205875
 Magnitude           :                                                    0.4205875
    Molecular point group: c2v

    Geometry (in Angstrom), charge = 0, multiplicity = 2:

       Center              X                  Y                   Z               Mass
    ------------   -----------------  -----------------  -----------------  -----------------
         O            0.000000000000     0.000000000000    -0.379910198383    15.994914619570
         N            0.000000000000     0.000000000000     0.433949801617    14.003074004430

  Charge       = 0
  Multiplicity = 2
  Basis Set: CC-PVTZ
    Blend: CC-PVTZ
  Basis Set: (CC-PVTZ AUX)
    Blend: CC-PVTZ-JKFIT

    Orbital Energies [Eh]
    ---------------------

    Alpha Occupied:

       1A1   -19.253787     2A1   -14.384524     3A1    -1.536605
       1B1    -0.729200     1B2    -0.713976     4A1    -0.660131
       5A1    -0.500609     2B1    -0.033050

    Alpha Virtual:

       2B2     0.067672     6A1     0.235533     3B1     0.362367
       3B2     0.363876     7A1     0.412579     8A1     0.527614
       4B1     0.612006     4B2     0.627877     1A2     0.888883
       9A1     0.890415    10A1     1.167240    11A1     1.241356
       5B1     1.327076     5B2     1.331595     2A2     1.632599
      12A1     1.634253    13A1     1.993606     6B1     2.068245
       6B2     2.072570     7B1     2.681449     7B2     2.688639
      14A1     2.728069    15A1     3.238386     8B1     3.700534
       8B2     3.700765    16A1     3.772402     9B1     3.920388
       9B2     3.927078     3A2     3.929049    17A1     3.930642
      10B1     4.233985    10B2     4.236263     4A2     4.363443
      18A1     4.366691    19A1     4.692268    11B2     4.944795
      11B1     4.945430    12B1     5.189833    12B2     5.189956
      20A1     5.959154     5A2     6.105728    21A1     6.107535
       6A2     6.469982    22A1     6.471295    13B2     6.593373
      13B1     6.593924    23A1     6.954770    24A1     7.761936
      14B1     8.404823    14B2     8.406946    25A1     9.860643
      26A1    23.546574

    Beta Occupied:

       1A1   -19.243560     2A1   -14.374146     3A1    -1.523383
       1B2    -0.705483     1B1    -0.669379     4A1    -0.633270
       5A1    -0.466869

    Beta Virtual:

       2B2     0.080254     2B1     0.114608     6A1     0.240880
       3B2     0.367508     3B1     0.387579     7A1     0.422689
       8A1     0.540606     4B2     0.634600     4B1     0.655790
       9A1     0.911023     1A2     0.911212    10A1     1.183490
      11A1     1.252936     5B2     1.335453     5B1     1.363984
       2A2     1.661921    12A1     1.662221    13A1     2.004729
       6B2     2.077275     6B1     2.099933     7B2     2.696957
       7B1     2.730230    14A1     2.748328    15A1     3.254495
       8B2     3.730528     8B1     3.730566    16A1     3.787185
       9B2     3.934457     3A2     3.947511    17A1     3.948203
       9B1     3.965326    10B2     4.240275    10B1     4.273008
      18A1     4.407367     4A2     4.407766    19A1     4.706989
      11B2     4.948822    11B1     4.977675    12B2     5.217411
      12B1     5.217426    20A1     5.973339     5A2     6.142656
      21A1     6.143364     6A2     6.494338    22A1     6.494547
      13B2     6.596988    13B1     6.625467    23A1     6.963750
      24A1     7.773754    14B2     8.412628    14B1     8.444446
      25A1     9.880340    26A1    23.560371

    Final Occupation by Irrep:
             A1    A2    B1    B2
    DOCC [     5,    0,    1,    1 ]
    SOCC [     0,    0,    1,    0 ]
    NA   [     5,    0,    2,    1 ]
    NB   [     5,    0,    1,    1 ]

  @DF-UKS Final Energy:  -129.40643445452824

   => Energetics <=

    Nuclear Repulsion Energy =             36.4115742234782402
    One-Electron Energy =                -246.9878194394605657
    Two-Electron Energy =                  94.0182104397907068
    DFT Exchange-Correlation Energy =     -12.8483996783366159
    Empirical Dispersion Energy =           0.0000000000000000
    VV10 Nonlocal Energy =                  0.0000000000000000
    Total Energy =                       -129.4064344545282381

  UHF NO Occupations:
  HONO-2 :    1 B1 1.9997828
  HONO-1 :    5 A1 1.9997283
  HONO-0 :    2 B1 1.0000000
  LUNO+0 :    6 A1 0.0002717
  LUNO+1 :    3 B1 0.0002172
  LUNO+2 :    7 A1 0.0000834
  LUNO+3 :    2 B2 0.0000125

Computation Completed

Properties will be evaluated at   0.000000,   0.000000,   0.000000 [a0]

Properties computed using the B3LYP density matrix

 Multipole Moments:

 ------------------------------------------------------------------------------------
     Multipole            Electronic (a.u.)      Nuclear  (a.u.)        Total (a.u.)
 ------------------------------------------------------------------------------------

 L = 1.  Multiply by 2.5417464519 to convert [e a0] to [Debye]
 Dipole X            :          0.0000000            0.0000000            0.0000000
 Dipole Y            :          0.0000000            0.0000000            0.0000000
 Dipole Z            :         -0.4175016           -0.0030859           -0.4205875
 Magnitude           :                                                    0.4205875

 L = 2.  Multiply by 1.3450342976 to convert [e a0^2] to [Debye ang]
 Quadrupole XX       :         -7.6333995            0.0000000           -7.6333995
 Quadrupole XY       :          0.0000000            0.0000000            0.0000000
 Quadrupole XZ       :          0.0000000            0.0000000            0.0000000
 Quadrupole YY       :         -6.4589793            0.0000000           -6.4589793
 Quadrupole YZ       :          0.0000000            0.0000000            0.0000000
 Quadrupole ZZ       :        -17.3678495            8.8306758           -8.5371737
 Traceless XX        :          2.8533433           -2.9435586           -0.0902153
 Traceless YY        :          4.0277635           -2.9435586            1.0842049
 Traceless ZZ        :         -6.8811067            5.8871172           -0.9939895

 ------------------------------------------------------------------------------------
  ==> Computing MBIS Charges <==

  Electron Count from Grid (Expected Number): 15.00000 (15.00000)
  Difference: -0.00000

  MBIS Charges: (a.u.)
   Center  Symbol  Z      Pop.       Charge
      1       O    8    7.808808    0.191192
      2       N    7    7.191191   -0.191191

  MBIS Dipoles: [e a0]
   Center  Symbol  Z        X           Y           Z
      1       O    8    0.000000    0.000000    0.117600
      2       N    7    0.000000   -0.000000   -0.244141

  MBIS Quadrupoles: [e a0^2]
   Center  Symbol  Z      XX        XY        XZ        YY        YZ        ZZ
      1       O    8   -3.1330   -0.0000   -0.0000   -2.8366    0.0000   -3.4202
      2       N    7   -4.5004   -0.0000   -0.0000   -3.6224    0.0000   -4.5177

  MBIS Octupoles: [e a0^3]
   Center  Symbol  Z      XXX       XXY       XXZ       XYY       XYZ       XZZ       YYY       YYZ       YZZ       ZZZ
      1       O    8    0.0000   -0.0000    0.2316    0.0000   -0.0000    0.0000    0.0000    0.1584    0.0000    0.3352
      2       N    7    0.0000   -0.0000   -0.8795   -0.0000   -0.0000    0.0000   -0.0000   -0.3023   -0.0000   -0.3707

  MBIS Radial Moments:
   Center  Symbol  Z      [a0^2]      [a0^3]      [a0^4]
      1       O    8    9.389739   16.372588   34.561827
      2       N    7   12.640515   27.311630   70.954253

  MBIS Valence Widths: [a0]
   Center  Symbol  Z     Width
      1       O    8    0.354965
      2       N    7    0.435283

*** tstop() called on Mac.lan at Sun Aug 10 17:20:16 2025
Module time:
	user time   =       3.74 seconds =       0.06 minutes
	system time =       2.57 seconds =       0.04 minutes
	total time  =          0 seconds =       0.00 minutes
Total time:
	user time   =      17.51 seconds =       0.29 minutes
	system time =       5.08 seconds =       0.08 minutes
	total time  =          2 seconds =       0.03 minutes

    Psi4 stopped on: Sunday, 10 August 2025 05:20PM
    Psi4 wall time for execution: 0:00:02.19

*** Psi4 exiting successfully. Buy a developer a beer!
