                               Psi4 1.9.1 release

  ==> Input File <==

--------------------------------------------------------------------------
molecule {
0 3
O           0.000000           0.000000           0.000000
O           0.000000           0.000000           1.277193
}

set {
basis              cc-pvtz
reference          uks
maxiter            500
DAMPING_PERCENTAGE 1
E_CONVERGENCE      1.0E-8
D_CONVERGENCE      1.0E-8
DIIS_MAX_VECS      400
MBIS_MAXITER       8000
guess              read
}

E, wfn = energy('b3lyp', restart_file='last_wfn', return_wfn=True)
properties('b3lyp','MBIS_CHARGES', wfn=wfn)
wfn.to_file('last_wfn')
--------------------------------------------------------------------------

    Molecular point group: d2h
  Charge       = 0
  Multiplicity = 3
  Basis Set: CC-PVTZ
    Blend: CC-PVTZ
  Basis Set: (CC-PVTZ AUX)
    Blend: CC-PVTZ-JKFIT
  @DF-UKS Final Energy:  -150.37473625308161
    Total Energy =                       -150.3747362530816361
 Dipole X            :          0.0000000            0.0000000            0.0000000
 Dipole Y            :          0.0000000            0.0000000            0.0000000
 Dipole Z            :          0.0000000            0.0000000            0.0000000
 Magnitude           :                                                    0.0000000
    Molecular point group: d2h

    Geometry (in Angstrom), charge = 0, multiplicity = 3:

       Center              X                  Y                   Z               Mass
    ------------   -----------------  -----------------  -----------------  -----------------
         O            0.000000000000     0.000000000000    -0.638596500000    15.994914619570
         O            0.000000000000     0.000000000000     0.638596500000    15.994914619570

  Charge       = 0
  Multiplicity = 3
  Basis Set: CC-PVTZ
    Blend: CC-PVTZ
  Basis Set: (CC-PVTZ AUX)
    Blend: CC-PVTZ-JKFIT

    Orbital Energies [Eh]
    ---------------------

    Alpha Occupied:

       1Ag   -19.298324     1B1u  -19.298194     2Ag    -1.259204
       2B1u   -0.863827     1B2u   -0.547478     1B3u   -0.547478
       3Ag    -0.544198     1B3g   -0.334378     1B2g   -0.334378

    Alpha Virtual:

       3B1u    0.102893     4B1u    0.476533     2B3u    0.500748
       2B2u    0.500748     4Ag     0.557388     2B2g    0.609409
       2B3g    0.609409     5Ag     0.663680     5B1u    1.196383
       6Ag     1.220866     1B1g    1.220866     3B2u    1.249641
       3B3u    1.249641     6B1u    1.571253     1Au     1.571253
       7Ag     1.996132     3B3g    2.105771     3B2g    2.105771
       7B1u    2.139285     4B2u    3.371312     4B3u    3.371312
       8Ag     3.508404     4B3g    3.627805     4B2g    3.627805
       9Ag     4.607414     2B1g    4.607414     5B3u    4.609135
       5B2u    4.609135     8B1u    4.609425    10Ag     4.772758
       6B3u    4.917288     6B2u    4.917288     5B2g    5.089447
       5B3g    5.089447     9B1u    5.520519     2Au     5.520520
      11Ag     5.986173     3B1g    5.986186    10B1u    6.057730
       6B3g    6.132250     6B2g    6.132250    11B1u    6.186724
       3Au     6.186737     7B2u    6.273074     7B3u    6.273074
      12B1u    6.423634    12Ag     6.764310     7B3g    6.999069
       7B2g    6.999069    13Ag     7.541285    13B1u   10.762243

    Beta Occupied:

       1Ag   -19.267923     1B1u  -19.267674     2Ag    -1.199581
       2B1u   -0.774376     3Ag    -0.507882     1B2u   -0.443532
       1B3u   -0.443532

    Beta Virtual:

       1B3g   -0.140472     1B2g   -0.140472     3B1u    0.143308
       4B1u    0.491772     2B3u    0.538004     2B2u    0.538004
       4Ag     0.567829     2B2g    0.650098     2B3g    0.650098
       5Ag     0.684825     5B1u    1.229677     1B1g    1.264310
       6Ag     1.264310     3B2u    1.277429     3B3u    1.277429
       1Au     1.631701     6B1u    1.631702     7Ag     2.028081
       3B3g    2.141322     3B2g    2.141322     7B1u    2.158136
       4B2u    3.445664     4B3u    3.445664     8Ag     3.528858
       4B3g    3.705077     4B2g    3.705077     5B3u    4.642916
       5B2u    4.642916     8B1u    4.643889     9Ag     4.650237
       2B1g    4.650238    10Ag     4.806738     6B3u    4.989265
       6B2u    4.989265     5B2g    5.164141     5B3g    5.164141
       9B1u    5.575801     2Au     5.575802    11Ag     6.096069
       3B1g    6.096082    10B1u    6.101913     6B3g    6.189972
       6B2g    6.189972    11B1u    6.290897     3Au     6.290910
       7B2u    6.331953     7B3u    6.331953    12B1u    6.453006
      12Ag     6.795694     7B3g    7.037361     7B2g    7.037361
      13Ag     7.594080    13B1u   10.804081

    Final Occupation by Irrep:
             Ag   B1g   B2g   B3g    Au   B1u   B2u   B3u
    DOCC [     3,    0,    0,    0,    0,    2,    1,    1 ]
    SOCC [     0,    0,    1,    1,    0,    0,    0,    0 ]
    NA   [     3,    0,    1,    1,    0,    2,    1,    1 ]
    NB   [     3,    0,    0,    0,    0,    2,    1,    1 ]

  @DF-UKS Final Energy:  -150.37473625251425

   => Energetics <=

    Nuclear Repulsion Energy =             26.5170115110872047
    One-Electron Energy =                -258.9893273665817901
    Two-Electron Energy =                  95.8266157461049062
    DFT Exchange-Correlation Energy =     -13.7290361431246168
    Empirical Dispersion Energy =           0.0000000000000000
    VV10 Nonlocal Energy =                  0.0000000000000000
    Total Energy =                       -150.3747362525143103

  UHF NO Occupations:
  HONO-2 :    1B3u 1.9983010
  HONO-1 :    1B3g 1.0000000
  HONO-0 :    1B2g 1.0000000
  LUNO+0 :    2B3u 0.0016990
  LUNO+1 :    2B2u 0.0016990
  LUNO+2 :    3B1u 0.0007611
  LUNO+3 :    4 Ag 0.0002963

Computation Completed

Properties will be evaluated at   0.000000,   0.000000,   0.000000 [a0]

Properties computed using the B3LYP density matrix

 Multipole Moments:

 ------------------------------------------------------------------------------------
     Multipole            Electronic (a.u.)      Nuclear  (a.u.)        Total (a.u.)
 ------------------------------------------------------------------------------------

 L = 1.  Multiply by 2.5417464519 to convert [e a0] to [Debye]
 Dipole X            :          0.0000000            0.0000000            0.0000000
 Dipole Y            :          0.0000000            0.0000000            0.0000000
 Dipole Z            :          0.0000000            0.0000000            0.0000000
 Magnitude           :                                                    0.0000000

 L = 2.  Multiply by 1.3450342976 to convert [e a0^2] to [Debye ang]
 Quadrupole XX       :         -7.4633027            0.0000000           -7.4633027
 Quadrupole XY       :          0.0000000            0.0000000            0.0000000
 Quadrupole XZ       :          0.0000000            0.0000000            0.0000000
 Quadrupole YY       :         -7.4633027            0.0000000           -7.4633027
 Quadrupole YZ       :          0.0000000            0.0000000            0.0000000
 Quadrupole ZZ       :        -30.9573866           23.3007975           -7.6565891
 Traceless XX        :          7.8313613           -7.7669325            0.0644288
 Traceless YY        :          7.8313613           -7.7669325            0.0644288
 Traceless ZZ        :        -15.6627226           15.5338650           -0.1288576

 ------------------------------------------------------------------------------------
  ==> Computing MBIS Charges <==

  Electron Count from Grid (Expected Number): 16.00000 (16.00000)
  Difference:  0.00000

  MBIS Charges: (a.u.)
   Center  Symbol  Z      Pop.       Charge
      1       O    8    8.000000   -0.000000
      2       O    8    8.000000   -0.000000

  MBIS Dipoles: [e a0]
   Center  Symbol  Z        X           Y           Z
      1       O    8    0.000000   -0.000000    0.071647
      2       O    8    0.000000   -0.000000   -0.071647

  MBIS Quadrupoles: [e a0^2]
   Center  Symbol  Z      XX        XY        XZ        YY        YZ        ZZ
      1       O    8   -3.7317   -0.0000    0.0000   -3.7317   -0.0000   -3.6554
      2       O    8   -3.7317   -0.0000   -0.0000   -3.7317    0.0000   -3.6554

  MBIS Octupoles: [e a0^3]
   Center  Symbol  Z      XXX       XXY       XXZ       XYY       XYZ       XZZ       YYY       YYZ       YZZ       ZZZ
      1       O    8   -0.0000   -0.0000    0.0633    0.0000   -0.0000   -0.0000   -0.0000    0.0633   -0.0000   -0.1902
      2       O    8   -0.0000   -0.0000   -0.0633    0.0000    0.0000   -0.0000   -0.0000   -0.0633   -0.0000    0.1902

  MBIS Radial Moments:
   Center  Symbol  Z      [a0^2]      [a0^3]      [a0^4]
      1       O    8   11.118674   20.741666   46.426105
      2       O    8   11.118674   20.741666   46.426105

  MBIS Valence Widths: [a0]
   Center  Symbol  Z     Width
      1       O    8    0.382785
      2       O    8    0.382785

*** tstop() called on Mac.lan at Sun Aug 10 17:01:39 2025
Module time:
	user time   =       3.85 seconds =       0.06 minutes
	system time =       2.15 seconds =       0.04 minutes
	total time  =          1 seconds =       0.02 minutes
Total time:
	user time   =      15.26 seconds =       0.25 minutes
	system time =       4.65 seconds =       0.08 minutes
	total time  =          2 seconds =       0.03 minutes

    Psi4 stopped on: Sunday, 10 August 2025 05:01PM
    Psi4 wall time for execution: 0:00:01.96

*** Psi4 exiting successfully. Buy a developer a beer!
