                               Psi4 1.9.1 release

  ==> Input File <==

--------------------------------------------------------------------------
molecule {
0 2
O           0.000000           0.000000           0.000000
H           0.000000           0.000000           0.889079
}

set {
basis              cc-pvtz
reference          uks
maxiter            500
DAMPING_PERCENTAGE 1
E_CONVERGENCE      1.0E-8
D_CONVERGENCE      1.0E-8
DIIS_MAX_VECS      400
MBIS_MAXITER       8000
guess              read
}

E, wfn = energy('b3lyp', restart_file='last_wfn', return_wfn=True)
properties('b3lyp','MBIS_CHARGES', wfn=wfn)
wfn.to_file('last_wfn')
--------------------------------------------------------------------------

    Molecular point group: c2v
  Charge       = 0
  Multiplicity = 2
  Basis Set: CC-PVTZ
    Blend: CC-PVTZ
  Basis Set: (CC-PVTZ AUX)
    Blend: CC-PVTZ-JKFIT
  @DF-UKS Final Energy:   -75.75627832393849
    Total Energy =                        -75.7562783239385027
 Dipole X            :          0.0000000            0.0000000            0.0000000
 Dipole Y            :          0.0000000            0.0000000            0.0000000
 Dipole Z            :         -0.1357733            0.7838270            0.6480537
 Magnitude           :                                                    0.6480537
    Molecular point group: c2v

    Geometry (in Angstrom), charge = 0, multiplicity = 2:

       Center              X                  Y                   Z               Mass
    ------------   -----------------  -----------------  -----------------  -----------------
         O            0.000000000000     0.000000000000    -0.052699511383    15.994914619570
         H            0.000000000000     0.000000000000     0.836379488617     1.007825032230

  Charge       = 0
  Multiplicity = 2
  Basis Set: CC-PVTZ
    Blend: CC-PVTZ
  Basis Set: (CC-PVTZ AUX)
    Blend: CC-PVTZ-JKFIT

    Orbital Energies [Eh]
    ---------------------

    Alpha Occupied:

       1A1   -19.190264     2A1    -1.044165     3A1    -0.490060
       1B1    -0.421173     1B2    -0.348383

    Alpha Virtual:

       4A1     0.042859     5A1     0.416560     6A1     0.507426
       2B1     0.529283     2B2     0.565059     3B1     0.699543
       3B2     0.716368     7A1     0.844295     8A1     1.353942
       1A2     1.416228     9A1     1.417336     4B1     1.764422
       4B2     1.802892    10A1     1.834349    11A1     2.493725
       2A2     3.214433    12A1     3.214602     5B1     3.352502
       5B2     3.389133     6B1     3.585473     6B2     3.620108
      13A1     3.763886     7B1     4.119401     7B2     4.151786
      14A1     4.466692    15A1     4.769368     8B1     5.064850
       8B2     5.065113     3A2     5.444851    16A1     5.445519
       4A2     6.134703    17A1     6.134705     9B1     6.320981
       9B2     6.379472    18A1     6.582913    10B1     6.825974
      10B2     6.869275    19A1     7.130232    20A1    10.941382

    Beta Occupied:

       1A1   -19.165140     2A1    -0.975830     3A1    -0.462748
       1B2    -0.322916

    Beta Virtual:

       1B1    -0.174282     4A1     0.048614     5A1     0.424294
       6A1     0.514868     2B2     0.575661     2B1     0.602504
       3B2     0.715949     3B1     0.716226     7A1     0.870546
       8A1     1.369132     1A2     1.468493     9A1     1.474572
       4B2     1.808887     4B1     1.813925    10A1     1.849818
      11A1     2.502352     2A2     3.223383    12A1     3.224198
       5B2     3.394762     5B1     3.406860     6B2     3.628059
       6B1     3.643947    13A1     3.768752     7B2     4.156473
       7B1     4.159492    14A1     4.496637    15A1     4.797499
       8B2     5.135020     8B1     5.137996     3A2     5.489734
      16A1     5.494727     4A2     6.226101    17A1     6.240424
       9B2     6.392439     9B1     6.411905    18A1     6.606784
      10B2     6.875800    10B1     6.879946    19A1     7.154694
      20A1    10.974641

    Final Occupation by Irrep:
             A1    A2    B1    B2
    DOCC [     3,    0,    0,    1 ]
    SOCC [     0,    0,    1,    0 ]
    NA   [     3,    0,    1,    1 ]
    NB   [     3,    0,    0,    1 ]

  @DF-UKS Final Energy:   -75.75627832418301

   => Energetics <=

    Nuclear Repulsion Energy =              4.7615765138531003
    One-Electron Energy =                -113.4225268747100586
    Two-Electron Energy =                  40.1306271740368175
    DFT Exchange-Correlation Energy =      -7.2259551373628836
    Empirical Dispersion Energy =           0.0000000000000000
    VV10 Nonlocal Energy =                  0.0000000000000000
    Total Energy =                        -75.7562783241830289

  UHF NO Occupations:
  HONO-2 :    2 A1 1.9998196
  HONO-1 :    3 A1 1.9993396
  HONO-0 :    1 B1 1.0000000
  LUNO+0 :    4 A1 0.0006604
  LUNO+1 :    5 A1 0.0001804
  LUNO+2 :    2 B2 0.0001504
  LUNO+3 :    6 A1 0.0000006

Computation Completed

Properties will be evaluated at   0.000000,   0.000000,   0.000000 [a0]

Properties computed using the B3LYP density matrix

 Multipole Moments:

 ------------------------------------------------------------------------------------
     Multipole            Electronic (a.u.)      Nuclear  (a.u.)        Total (a.u.)
 ------------------------------------------------------------------------------------

 L = 1.  Multiply by 2.5417464519 to convert [e a0] to [Debye]
 Dipole X            :          0.0000000            0.0000000            0.0000000
 Dipole Y            :          0.0000000            0.0000000            0.0000000
 Dipole Z            :         -0.1357733            0.7838270            0.6480537
 Magnitude           :                                                    0.6480537

 L = 2.  Multiply by 1.3450342976 to convert [e a0^2] to [Debye ang]
 Quadrupole XX       :         -3.9452920            0.0000000           -3.9452920
 Quadrupole XY       :          0.0000000            0.0000000            0.0000000
 Quadrupole XZ       :          0.0000000            0.0000000            0.0000000
 Quadrupole YY       :         -4.8357640            0.0000000           -4.8357640
 Quadrupole YZ       :          0.0000000            0.0000000            0.0000000
 Quadrupole ZZ       :         -5.9591568            2.5774109           -3.3817459
 Traceless XX        :          0.9681123           -0.8591370            0.1089753
 Traceless YY        :          0.0776403           -0.8591370           -0.7814967
 Traceless ZZ        :         -1.0457525            1.7182739            0.6725214

 ------------------------------------------------------------------------------------
  ==> Computing MBIS Charges <==

  Electron Count from Grid (Expected Number):  9.00000 ( 9.00000)
  Difference: -0.00000

  MBIS Charges: (a.u.)
   Center  Symbol  Z      Pop.       Charge
      1       O    8    8.397762   -0.397762
      2       H    1    0.602238    0.397762

  MBIS Dipoles: [e a0]
   Center  Symbol  Z        X           Y           Z
      1       O    8    0.000000    0.000000   -0.046395
      2       H    1    0.000000    0.000000    0.026162

  MBIS Quadrupoles: [e a0^2]
   Center  Symbol  Z      XX        XY        XZ        YY        YZ        ZZ
      1       O    8   -3.6933   -0.0000    0.0000   -4.5504   -0.0000   -4.1987
      2       H    1   -0.2520   -0.0000    0.0000   -0.2854    0.0000   -0.2647

  MBIS Octupoles: [e a0^3]
   Center  Symbol  Z      XXX       XXY       XXZ       XYY       XYZ       XZZ       YYY       YYZ       YZZ       ZZZ
      1       O    8   -0.0000   -0.0000   -0.0149   -0.0000   -0.0000    0.0000   -0.0000   -0.0429    0.0000   -0.2664
      2       H    1    0.0000   -0.0000   -0.0037   -0.0000   -0.0000    0.0000    0.0000    0.0062   -0.0000    0.0097

  MBIS Radial Moments:
   Center  Symbol  Z      [a0^2]      [a0^3]      [a0^4]
      1       O    8   12.442440   23.832563   54.563103
      2       H    1    0.801996    1.332324    2.647284

  MBIS Valence Widths: [a0]
   Center  Symbol  Z     Width
      1       O    8    0.393076
      2       H    1    0.333826

*** tstop() called on Mac.lan at Sun Aug 10 17:10:31 2025
Module time:
	user time   =       2.81 seconds =       0.05 minutes
	system time =       2.27 seconds =       0.04 minutes
	total time  =          0 seconds =       0.00 minutes
Total time:
	user time   =      11.73 seconds =       0.20 minutes
	system time =       4.33 seconds =       0.07 minutes
	total time  =          1 seconds =       0.02 minutes

    Psi4 stopped on: Sunday, 10 August 2025 05:10PM
    Psi4 wall time for execution: 0:00:01.57

*** Psi4 exiting successfully. Buy a developer a beer!
