                               Psi4 1.9.1 release

  ==> Input File <==

--------------------------------------------------------------------------
molecule {
0 1
N           0.000000           0.000000           0.000000
N           0.000000           0.000000           1.636990
}

set {
basis              cc-pvtz
reference          uks
maxiter            500
DAMPING_PERCENTAGE 1
E_CONVERGENCE      1.0E-8
D_CONVERGENCE      1.0E-8
DIIS_MAX_VECS      400
MBIS_MAXITER       8000
guess              read
}

E, wfn = energy('b3lyp', restart_file='last_wfn', return_wfn=True)
properties('b3lyp','MBIS_CHARGES', wfn=wfn)
wfn.to_file('last_wfn')
--------------------------------------------------------------------------

    Molecular point group: d2h
  Charge       = 0
  Multiplicity = 1
  Basis Set: CC-PVTZ
    Blend: CC-PVTZ
  Basis Set: (CC-PVTZ AUX)
    Blend: CC-PVTZ-JKFIT
  @DF-UKS Final Energy:  -109.28961812139865
    Total Energy =                       -109.2896181213986466
 Dipole X            :          0.0000000            0.0000000            0.0000000
 Dipole Y            :          0.0000000            0.0000000            0.0000000
 Dipole Z            :          0.0000000            0.0000000            0.0000000
 Magnitude           :                                                    0.0000000
    Molecular point group: d2h

    Geometry (in Angstrom), charge = 0, multiplicity = 1:

       Center              X                  Y                   Z               Mass
    ------------   -----------------  -----------------  -----------------  -----------------
         N            0.000000000000     0.000000000000    -0.818495000000    14.003074004430
         N            0.000000000000     0.000000000000     0.818495000000    14.003074004430

  Charge       = 0
  Multiplicity = 1
  Basis Set: CC-PVTZ
    Blend: CC-PVTZ
  Basis Set: (CC-PVTZ AUX)
    Blend: CC-PVTZ-JKFIT

    Orbital Energies [Eh]
    ---------------------

    Alpha Occupied:

       1Ag   -14.502607     1B1u  -14.502479     2Ag    -0.884695
       2B1u   -0.675881     3Ag    -0.398580     1B2u   -0.358012
       1B3u   -0.358012

    Alpha Virtual:

       1B3g   -0.182126     1B2g   -0.182126     3B1u   -0.001004
       4B1u    0.391687     2B3u    0.420060     2B2u    0.420060
       4Ag     0.450031     2B2g    0.499153     2B3g    0.499153
       5Ag     0.507494     5B1u    0.847402     3B2u    0.875550
       3B3u    0.875550     6Ag     0.906020     1B1g    0.906021
       6B1u    1.111412     1Au     1.111412     7Ag     1.338440
       3B3g    1.469163     3B2g    1.469163     7B1u    1.685532
       4B3u    2.679348     4B2u    2.679348     8Ag     2.681735
       4B2g    2.830207     4B3g    2.830207     8B1u    3.319101
       5B3u    3.524297     5B2u    3.524297     9Ag     3.572422
       2B1g    3.626902    10Ag     3.626902     6B2u    3.794513
       6B3u    3.794513     5B3g    3.851388     5B2g    3.851388
       9B1u    4.028235     2Au     4.028236     6B3g    4.306505
       6B2g    4.306505     3B1g    4.315806    11Ag     4.315810
       7B2u    4.435548     7B3u    4.435548     3Au     4.444338
      10B1u    4.444344    11B1u    4.477218    12Ag     4.804823
       7B3g    4.989791     7B2g    4.989791    12B1u    5.062533
      13Ag     5.522030    13B1u    6.661386

    Beta Occupied:

       1Ag   -14.502607     1B1u  -14.502479     2Ag    -0.884695
       2B1u   -0.675881     3Ag    -0.398580     1B2u   -0.358012
       1B3u   -0.358012

    Beta Virtual:

       1B3g   -0.182126     1B2g   -0.182126     3B1u   -0.001004
       4B1u    0.391687     2B3u    0.420060     2B2u    0.420060
       4Ag     0.450031     2B2g    0.499153     2B3g    0.499153
       5Ag     0.507494     5B1u    0.847402     3B2u    0.875550
       3B3u    0.875550     6Ag     0.906020     1B1g    0.906021
       6B1u    1.111412     1Au     1.111412     7Ag     1.338440
       3B3g    1.469163     3B2g    1.469163     7B1u    1.685532
       4B3u    2.679348     4B2u    2.679348     8Ag     2.681735
       4B2g    2.830207     4B3g    2.830207     8B1u    3.319101
       5B3u    3.524297     5B2u    3.524297     9Ag     3.572422
       2B1g    3.626902    10Ag     3.626902     6B2u    3.794513
       6B3u    3.794513     5B3g    3.851388     5B2g    3.851388
       9B1u    4.028235     2Au     4.028236     6B3g    4.306505
       6B2g    4.306505     3B1g    4.315806    11Ag     4.315810
       7B2u    4.435548     7B3u    4.435548     3Au     4.444338
      10B1u    4.444344    11B1u    4.477218    12Ag     4.804823
       7B3g    4.989791     7B2g    4.989791    12B1u    5.062533
      13Ag     5.522030    13B1u    6.661386

    Final Occupation by Irrep:
             Ag   B1g   B2g   B3g    Au   B1u   B2u   B3u
    DOCC [     3,    0,    0,    0,    0,    2,    1,    1 ]
    SOCC [     0,    0,    0,    0,    0,    0,    0,    0 ]
    NA   [     3,    0,    0,    0,    0,    2,    1,    1 ]
    NB   [     3,    0,    0,    0,    0,    2,    1,    1 ]

  @DF-UKS Final Energy:  -109.28961812168542

   => Energetics <=

    Nuclear Repulsion Energy =             15.8398544418903029
    One-Electron Energy =                -179.1340315025439338
    Two-Electron Energy =                  64.7786311817668548
    DFT Exchange-Correlation Energy =     -10.7740722427986562
    Empirical Dispersion Energy =           0.0000000000000000
    VV10 Nonlocal Energy =                  0.0000000000000000
    Total Energy =                       -109.2896181216854217

  UHF NO Occupations:
  HONO-2 :    1B3u 2.0000000
  HONO-1 :    3 Ag 2.0000000
  HONO-0 :    2B1u 2.0000000
  LUNO+0 :    4 Ag 0.0000000
  LUNO+1 :    5 Ag 0.0000000
  LUNO+2 :    6 Ag 0.0000000
  LUNO+3 :    3B1u 0.0000000

Computation Completed

Properties will be evaluated at   0.000000,   0.000000,   0.000000 [a0]

Properties computed using the B3LYP density matrix

 Multipole Moments:

 ------------------------------------------------------------------------------------
     Multipole            Electronic (a.u.)      Nuclear  (a.u.)        Total (a.u.)
 ------------------------------------------------------------------------------------

 L = 1.  Multiply by 2.5417464519 to convert [e a0] to [Debye]
 Dipole X            :          0.0000000            0.0000000            0.0000000
 Dipole Y            :          0.0000000            0.0000000            0.0000000
 Dipole Z            :          0.0000000            0.0000000            0.0000000
 Magnitude           :                                                    0.0000000

 L = 2.  Multiply by 1.3450342976 to convert [e a0^2] to [Debye ang]
 Quadrupole XX       :         -8.3825547            0.0000000           -8.3825547
 Quadrupole XY       :          0.0000000            0.0000000            0.0000000
 Quadrupole XZ       :          0.0000000            0.0000000            0.0000000
 Quadrupole YY       :         -8.3825547            0.0000000           -8.3825547
 Quadrupole YZ       :          0.0000000            0.0000000            0.0000000
 Quadrupole ZZ       :        -41.8043357           33.4932917           -8.3110440
 Traceless XX        :         11.1405937          -11.1644306           -0.0238369
 Traceless YY        :         11.1405937          -11.1644306           -0.0238369
 Traceless ZZ        :        -22.2811873           22.3288611            0.0476738

 ------------------------------------------------------------------------------------
  ==> Computing MBIS Charges <==

  Electron Count from Grid (Expected Number): 14.00000 (14.00000)
  Difference: -0.00000

  MBIS Charges: (a.u.)
   Center  Symbol  Z      Pop.       Charge
      1       N    7    7.000000    0.000000
      2       N    7    7.000000    0.000000

  MBIS Dipoles: [e a0]
   Center  Symbol  Z        X           Y           Z
      1       N    7   -0.000000    0.000000   -0.077008
      2       N    7   -0.000000    0.000000    0.077008

  MBIS Quadrupoles: [e a0^2]
   Center  Symbol  Z      XX        XY        XZ        YY        YZ        ZZ
      1       N    7   -4.1913   -0.0000   -0.0000   -4.1913    0.0000   -4.3937
      2       N    7   -4.1913   -0.0000    0.0000   -4.1913   -0.0000   -4.3937

  MBIS Octupoles: [e a0^3]
   Center  Symbol  Z      XXX       XXY       XXZ       XYY       XYZ       XZZ       YYY       YYZ       YZZ       ZZZ
      1       N    7   -0.0000    0.0000   -0.2556   -0.0000   -0.0000   -0.0000    0.0000   -0.2556    0.0000   -0.5744
      2       N    7   -0.0000    0.0000    0.2556   -0.0000    0.0000   -0.0000    0.0000    0.2556    0.0000    0.5744

  MBIS Radial Moments:
   Center  Symbol  Z      [a0^2]      [a0^3]      [a0^4]
      1       N    7   12.776298   27.509257   70.462587
      2       N    7   12.776298   27.509257   70.462587

  MBIS Valence Widths: [a0]
   Center  Symbol  Z     Width
      1       N    7    0.449980
      2       N    7    0.449980

*** tstop() called on Mac.lan at Sun Aug 10 17:07:58 2025
Module time:
	user time   =       3.62 seconds =       0.06 minutes
	system time =       2.00 seconds =       0.03 minutes
	total time  =          1 seconds =       0.02 minutes
Total time:
	user time   =      24.79 seconds =       0.41 minutes
	system time =       4.49 seconds =       0.07 minutes
	total time  =          3 seconds =       0.05 minutes

    Psi4 stopped on: Sunday, 10 August 2025 05:07PM
    Psi4 wall time for execution: 0:00:02.90

*** Psi4 exiting successfully. Buy a developer a beer!
