                               Psi4 1.9.1 release

  ==> Input File <==

--------------------------------------------------------------------------
molecule {
0 2
C           0.000000           0.000000           0.000000
H           0.000000           0.000000           1.664911
}

set {
basis              cc-pvtz
reference          uks
maxiter            500
DAMPING_PERCENTAGE 1
E_CONVERGENCE      1.0E-8
D_CONVERGENCE      1.0E-8
DIIS_MAX_VECS      400
MBIS_MAXITER       8000
guess              read
}

E, wfn = energy('b3lyp', restart_file='last_wfn', return_wfn=True)
properties('b3lyp','MBIS_CHARGES', wfn=wfn)
wfn.to_file('last_wfn')
--------------------------------------------------------------------------

    Molecular point group: c2v
  Charge       = 0
  Multiplicity = 2
  Basis Set: CC-PVTZ
    Blend: CC-PVTZ
  Basis Set: (CC-PVTZ AUX)
    Blend: CC-PVTZ-JKFIT
  @DF-UKS Final Energy:   -38.43607973091027
    Total Energy =                        -38.4360797309102651
 Dipole X            :          0.0000000            0.0000000            0.0000000
 Dipole Y            :          0.0000000            0.0000000            0.0000000
 Dipole Z            :         -1.3164885            1.4398748            0.1233862
 Magnitude           :                                                    0.1233862
    Molecular point group: c2v

    Geometry (in Angstrom), charge = 0, multiplicity = 2:

       Center              X                  Y                   Z               Mass
    ------------   -----------------  -----------------  -----------------  -----------------
         C            0.000000000000     0.000000000000    -0.128994584266    12.000000000000
         H            0.000000000000     0.000000000000     1.535916415734     1.007825032230

  Charge       = 0
  Multiplicity = 2
  Basis Set: CC-PVTZ
    Blend: CC-PVTZ
  Basis Set: (CC-PVTZ AUX)
    Blend: CC-PVTZ-JKFIT

    Orbital Energies [Eh]
    ---------------------

    Alpha Occupied:

       1A1   -10.333161     2A1    -0.594430     3A1    -0.306731
       1B1    -0.274588

    Alpha Virtual:

       1B2    -0.159440     4A1    -0.042759     5A1     0.257132
       2B1     0.281275     2B2     0.300284     6A1     0.310822
       7A1     0.440821     3B1     0.536929     3B2     0.538854
       1A2     0.649292     8A1     0.654984     9A1     0.783390
       4B1     0.882629     4B2     0.884378    10A1     1.183577
       5B1     1.883558     5B2     1.910726    11A1     2.024741
      12A1     2.409021     6B1     2.546363     6B2     2.549177
      13A1     2.580728     2A2     2.614517    14A1     2.619691
       7B1     2.627309     7B2     2.629982     3A2     2.868331
      15A1     2.880878     8B1     2.923438     8B2     2.941181
      16A1     3.178338     4A2     3.245320    17A1     3.245882
       9B2     3.543893     9B1     3.545082    18A1     3.619322
      10B2     3.808423    10B1     3.809346    19A1     3.993878
      20A1     4.913359

    Beta Occupied:

       1A1   -10.316753     2A1    -0.538441     3A1    -0.297763

    Beta Virtual:

       1B2    -0.142374     1B1    -0.094354     4A1    -0.033218
       5A1     0.253233     2B2     0.307524     6A1     0.321010
       2B1     0.336251     7A1     0.463617     3B2     0.537744
       3B1     0.553509     8A1     0.691787     1A2     0.692956
       9A1     0.793857     4B2     0.884257     4B1     0.903700
      10A1     1.187835     5B2     1.921779     5B1     1.965723
      11A1     2.036463    12A1     2.401139     6B2     2.553924
       6B1     2.584936    13A1     2.595940     2A2     2.654471
      14A1     2.659018     7B2     2.686188     7B1     2.686896
      15A1     2.944294     3A2     2.945438     8B2     2.951522
       8B1     2.995267    16A1     3.201417     4A2     3.238594
      17A1     3.239220     9B2     3.533075     9B1     3.540901
      18A1     3.645298    10B2     3.796840    10B1     3.805689
      19A1     3.985017    20A1     4.919250

    Final Occupation by Irrep:
             A1    A2    B1    B2
    DOCC [     3,    0,    0,    0 ]
    SOCC [     0,    0,    1,    0 ]
    NA   [     3,    0,    1,    0 ]
    NB   [     3,    0,    0,    0 ]

  @DF-UKS Final Energy:   -38.43607973279933

   => Energetics <=

    Nuclear Repulsion Energy =              1.9070468415548940
    One-Electron Energy =                 -54.8110707376146493
    Two-Electron Energy =                  18.9145280200011001
    DFT Exchange-Correlation Energy =      -4.4465838567406708
    Empirical Dispersion Energy =           0.0000000000000000
    VV10 Nonlocal Energy =                  0.0000000000000000
    Total Energy =                        -38.4360797327993282

  UHF NO Occupations:
  HONO-2 :    2 A1 1.9989883
  HONO-1 :    3 A1 1.9961245
  HONO-0 :    1 B1 1.0000000
  LUNO+0 :    4 A1 0.0038755
  LUNO+1 :    5 A1 0.0010117
  LUNO+2 :    6 A1 0.0000007
  LUNO+3 :    7 A1 0.0000000

Computation Completed

Properties will be evaluated at   0.000000,   0.000000,   0.000000 [a0]

Properties computed using the B3LYP density matrix

 Multipole Moments:

 ------------------------------------------------------------------------------------
     Multipole            Electronic (a.u.)      Nuclear  (a.u.)        Total (a.u.)
 ------------------------------------------------------------------------------------

 L = 1.  Multiply by 2.5417464519 to convert [e a0] to [Debye]
 Dipole X            :          0.0000000            0.0000000            0.0000000
 Dipole Y            :          0.0000000            0.0000000            0.0000000
 Dipole Z            :         -1.3164886            1.4398748            0.1233862
 Magnitude           :                                                    0.1233862

 L = 2.  Multiply by 1.3450342976 to convert [e a0^2] to [Debye ang]
 Quadrupole XX       :         -6.0301791            0.0000000           -6.0301791
 Quadrupole XY       :          0.0000000            0.0000000            0.0000000
 Quadrupole XZ       :          0.0000000            0.0000000            0.0000000
 Quadrupole YY       :         -4.5931667            0.0000000           -4.5931667
 Quadrupole YZ       :          0.0000000            0.0000000            0.0000000
 Quadrupole ZZ       :        -14.7147332            8.7808086           -5.9339246
 Traceless XX        :          2.4158472           -2.9269362           -0.5110890
 Traceless YY        :          3.8528596           -2.9269362            0.9259234
 Traceless ZZ        :         -6.2687069            5.8538724           -0.4148344

 ------------------------------------------------------------------------------------
  ==> Computing MBIS Charges <==

  Electron Count from Grid (Expected Number):  7.00000 ( 7.00000)
  Difference: -0.00000

  MBIS Charges: (a.u.)
   Center  Symbol  Z      Pop.       Charge
      1       C    6    5.962546    0.037454
      2       H    1    1.037454   -0.037454

  MBIS Dipoles: [e a0]
   Center  Symbol  Z        X           Y           Z
      1       C    6    0.000000    0.000000    0.138831
      2       H    1    0.000000    0.000000    0.102393

  MBIS Quadrupoles: [e a0^2]
   Center  Symbol  Z      XX        XY        XZ        YY        YZ        ZZ
      1       C    6   -5.0114   -0.0000    0.0000   -3.6420    0.0000   -5.1680
      2       H    1   -1.0187   -0.0000    0.0000   -0.9512    0.0000   -0.9793

  MBIS Octupoles: [e a0^3]
   Center  Symbol  Z      XXX       XXY       XXZ       XYY       XYZ       XZZ       YYY       YYZ       YZZ       ZZZ
      1       C    6    0.0000    0.0000    0.1277   -0.0000    0.0000    0.0000   -0.0000    0.0617   -0.0000    0.0364
      2       H    1    0.0000    0.0000    0.0538    0.0000   -0.0000    0.0000   -0.0000   -0.0341   -0.0000    0.1336

  MBIS Radial Moments:
   Center  Symbol  Z      [a0^2]      [a0^3]      [a0^4]
      1       C    6   13.821379   34.279236   101.446316
      2       H    1    2.949297    7.074303   20.210789

  MBIS Valence Widths: [a0]
   Center  Symbol  Z     Width
      1       C    6    0.523768
      2       H    1    0.489742

*** tstop() called on Mac.lan at Sun Aug 10 17:09:55 2025
Module time:
	user time   =       2.64 seconds =       0.04 minutes
	system time =       1.80 seconds =       0.03 minutes
	total time  =          1 seconds =       0.02 minutes
Total time:
	user time   =      12.83 seconds =       0.21 minutes
	system time =       3.82 seconds =       0.06 minutes
	total time  =          2 seconds =       0.03 minutes

    Psi4 stopped on: Sunday, 10 August 2025 05:09PM
    Psi4 wall time for execution: 0:00:01.62

*** Psi4 exiting successfully. Buy a developer a beer!
