                               Psi4 1.9.1 release

  ==> Input File <==

--------------------------------------------------------------------------
molecule {
0 2
C           0.000000           0.000000           0.000000
H           0.000000           0.000000           1.293402
}

set {
basis              cc-pvtz
reference          uks
maxiter            500
DAMPING_PERCENTAGE 1
E_CONVERGENCE      1.0E-8
D_CONVERGENCE      1.0E-8
DIIS_MAX_VECS      400
MBIS_MAXITER       8000
guess              read
}

E, wfn = energy('b3lyp', restart_file='last_wfn', return_wfn=True)
properties('b3lyp','MBIS_CHARGES', wfn=wfn)
wfn.to_file('last_wfn')
--------------------------------------------------------------------------

    Molecular point group: c2v
  Charge       = 0
  Multiplicity = 2
  Basis Set: CC-PVTZ
    Blend: CC-PVTZ
  Basis Set: (CC-PVTZ AUX)
    Blend: CC-PVTZ-JKFIT
  @DF-UKS Final Energy:   -38.48574038390583
    Total Energy =                        -38.4857403839058350
 Dipole X            :          0.0000000            0.0000000            0.0000000
 Dipole Y            :          0.0000000            0.0000000            0.0000000
 Dipole Z            :         -0.6739060            1.1185805            0.4446745
 Magnitude           :                                                    0.4446745
    Molecular point group: c2v

    Geometry (in Angstrom), charge = 0, multiplicity = 2:

       Center              X                  Y                   Z               Mass
    ------------   -----------------  -----------------  -----------------  -----------------
         C            0.000000000000     0.000000000000    -0.100210673891    12.000000000000
         H            0.000000000000     0.000000000000     1.193191326109     1.007825032230

  Charge       = 0
  Multiplicity = 2
  Basis Set: CC-PVTZ
    Blend: CC-PVTZ
  Basis Set: (CC-PVTZ AUX)
    Blend: CC-PVTZ-JKFIT

    Orbital Energies [Eh]
    ---------------------

    Alpha Occupied:

       1A1   -10.300205     2A1    -0.620424     3A1    -0.322037
       1B1    -0.262759

    Alpha Virtual:

       1B2    -0.149963     4A1     0.032697     5A1     0.272519
       2B1     0.289088     2B2     0.308761     6A1     0.325963
       7A1     0.446223     3B1     0.551365     3B2     0.553977
       1A2     0.654219     8A1     0.659953     9A1     0.916538
       4B1     0.983443     4B2     0.984174    10A1     1.237331
       5B1     1.910897     5B2     1.937377    11A1     2.117544
      12A1     2.342963     2A2     2.542731    13A1     2.546699
       6B1     2.568084     6B2     2.572970     7B1     2.638373
       7B2     2.640900    14A1     2.763800     3A2     2.891733
      15A1     2.904988     8B1     3.025251     8B2     3.037853
      16A1     3.084208     4A2     3.408469    17A1     3.409746
       9B2     3.723924     9B1     3.726198    18A1     3.941158
      10B2     4.298244    10B1     4.298287    19A1     4.415581
      20A1     6.656347

    Beta Occupied:

       1A1   -10.285150     2A1    -0.574433     3A1    -0.305187

    Beta Virtual:

       1B2    -0.133792     1B1    -0.087315     4A1     0.040206
       5A1     0.277135     2B2     0.316208     6A1     0.334016
       2B1     0.345074     7A1     0.465418     3B2     0.554723
       3B1     0.575013     8A1     0.697400     1A2     0.697745
       9A1     0.929815     4B2     0.985515     4B1     1.005241
      10A1     1.243416     5B2     1.948441     5B1     1.992205
      11A1     2.129715    12A1     2.349587    13A1     2.573810
       2A2     2.573848     6B2     2.576184     6B1     2.607493
       7B2     2.697112     7B1     2.697796    14A1     2.782966
       3A2     2.970200    15A1     2.971401     8B2     3.043150
       8B1     3.085006    16A1     3.103602     4A2     3.415519
      17A1     3.415834     9B2     3.718750     9B1     3.726036
      18A1     3.952242    10B2     4.297768    10B1     4.317002
      19A1     4.417752    20A1     6.672457

    Final Occupation by Irrep:
             A1    A2    B1    B2
    DOCC [     3,    0,    0,    0 ]
    SOCC [     0,    0,    1,    0 ]
    NA   [     3,    0,    1,    0 ]
    NB   [     3,    0,    0,    0 ]

  @DF-UKS Final Energy:   -38.48574038433171

   => Energetics <=

    Nuclear Repulsion Energy =              2.4548154897085364
    One-Electron Energy =                 -55.9561430262217954
    Two-Electron Energy =                  19.5219227033473715
    DFT Exchange-Correlation Energy =      -4.5063355511658214
    Empirical Dispersion Energy =           0.0000000000000000
    VV10 Nonlocal Energy =                  0.0000000000000000
    Total Energy =                        -38.4857403843317059

  UHF NO Occupations:
  HONO-2 :    2 A1 1.9997156
  HONO-1 :    3 A1 1.9986258
  HONO-0 :    1 B1 1.0000000
  LUNO+0 :    4 A1 0.0013742
  LUNO+1 :    5 A1 0.0002844
  LUNO+2 :    6 A1 0.0000007
  LUNO+3 :    7 A1 0.0000000

Computation Completed

Properties will be evaluated at   0.000000,   0.000000,   0.000000 [a0]

Properties computed using the B3LYP density matrix

 Multipole Moments:

 ------------------------------------------------------------------------------------
     Multipole            Electronic (a.u.)      Nuclear  (a.u.)        Total (a.u.)
 ------------------------------------------------------------------------------------

 L = 1.  Multiply by 2.5417464519 to convert [e a0] to [Debye]
 Dipole X            :          0.0000000            0.0000000            0.0000000
 Dipole Y            :          0.0000000            0.0000000            0.0000000
 Dipole Z            :         -0.6739060            1.1185805            0.4446745
 Magnitude           :                                                    0.4446745

 L = 2.  Multiply by 1.3450342976 to convert [e a0^2] to [Debye ang]
 Quadrupole XX       :         -5.8172667            0.0000000           -5.8172667
 Quadrupole XY       :          0.0000000            0.0000000            0.0000000
 Quadrupole XZ       :          0.0000000            0.0000000            0.0000000
 Quadrupole YY       :         -4.3353062            0.0000000           -4.3353062
 Quadrupole YZ       :          0.0000000            0.0000000            0.0000000
 Quadrupole ZZ       :        -10.9415262            5.2993124           -5.6422138
 Traceless XX        :          1.2140997           -1.7664375           -0.5523378
 Traceless YY        :          2.6960602           -1.7664375            0.9296227
 Traceless ZZ        :         -3.9101598            3.5328749           -0.3772849

 ------------------------------------------------------------------------------------
  ==> Computing MBIS Charges <==

  Electron Count from Grid (Expected Number):  7.00000 ( 7.00000)
  Difference:  0.00000

  MBIS Charges: (a.u.)
   Center  Symbol  Z      Pop.       Charge
      1       C    6    6.044663   -0.044663
      2       H    1    0.955337    0.044663

  MBIS Dipoles: [e a0]
   Center  Symbol  Z        X           Y           Z
      1       C    6    0.000000   -0.000000    0.274649
      2       H    1    0.000000   -0.000000    0.060862

  MBIS Quadrupoles: [e a0^2]
   Center  Symbol  Z      XX        XY        XZ        YY        YZ        ZZ
      1       C    6   -5.1023    0.0000   -0.0000   -3.6965    0.0000   -5.3338
      2       H    1   -0.7150    0.0000   -0.0000   -0.6388   -0.0000   -0.7043

  MBIS Octupoles: [e a0^3]
   Center  Symbol  Z      XXX       XXY       XXZ       XYY       XYZ       XZZ       YYY       YYZ       YZZ       ZZZ
      1       C    6   -0.0000   -0.0000    0.3453   -0.0000   -0.0000   -0.0000    0.0000    0.3302   -0.0000    0.6036
      2       H    1   -0.0000    0.0000    0.0002   -0.0000   -0.0000   -0.0000    0.0000   -0.0575    0.0000   -0.0193

  MBIS Radial Moments:
   Center  Symbol  Z      [a0^2]      [a0^3]      [a0^4]
      1       C    6   14.132597   35.233604   105.077295
      2       H    1    2.058102    4.339520   11.020738

  MBIS Valence Widths: [a0]
   Center  Symbol  Z     Width
      1       C    6    0.523962
      2       H    1    0.425943

*** tstop() called on Mac.lan at Sun Aug 10 17:09:17 2025
Module time:
	user time   =       2.63 seconds =       0.04 minutes
	system time =       1.84 seconds =       0.03 minutes
	total time  =          0 seconds =       0.00 minutes
Total time:
	user time   =      11.62 seconds =       0.19 minutes
	system time =       4.31 seconds =       0.07 minutes
	total time  =          2 seconds =       0.03 minutes

    Psi4 stopped on: Sunday, 10 August 2025 05:09PM
    Psi4 wall time for execution: 0:00:01.56

*** Psi4 exiting successfully. Buy a developer a beer!
