                               Psi4 1.9.1 release

  ==> Input File <==

--------------------------------------------------------------------------
molecule {
0 1
O           0.000000           0.000000           0.000000
C           0.000000           0.000000           1.565091
}

set {
basis              cc-pvtz
reference          uks
maxiter            500
DAMPING_PERCENTAGE 1
E_CONVERGENCE      1.0E-8
D_CONVERGENCE      1.0E-8
DIIS_MAX_VECS      400
MBIS_MAXITER       8000
guess              read
}

E, wfn = energy('b3lyp', restart_file='last_wfn', return_wfn=True)
properties('b3lyp','MBIS_CHARGES', wfn=wfn)
wfn.to_file('last_wfn')
--------------------------------------------------------------------------

    Molecular point group: c2v
  Charge       = 0
  Multiplicity = 1
  Basis Set: CC-PVTZ
    Blend: CC-PVTZ
  Basis Set: (CC-PVTZ AUX)
    Blend: CC-PVTZ-JKFIT
  @DF-UKS Final Energy:  -113.17941117586507
    Total Energy =                       -113.1794111758650700
 Dipole X            :          0.0000000            0.0000000            0.0000000
 Dipole Y            :          0.0000000            0.0000000            0.0000000
 Dipole Z            :          0.5453608           -0.0032235            0.5421372
 Magnitude           :                                                    0.5421372
    Molecular point group: c2v

    Geometry (in Angstrom), charge = 0, multiplicity = 1:

       Center              X                  Y                   Z               Mass
    ------------   -----------------  -----------------  -----------------  -----------------
         O            0.000000000000     0.000000000000    -0.670875130545    15.994914619570
         C            0.000000000000     0.000000000000     0.894215869455    12.000000000000

  Charge       = 0
  Multiplicity = 1
  Basis Set: CC-PVTZ
    Blend: CC-PVTZ
  Basis Set: (CC-PVTZ AUX)
    Blend: CC-PVTZ-JKFIT

    Orbital Energies [Eh]
    ---------------------

    Alpha Occupied:

       1A1   -19.232726     2A1   -10.405308     3A1    -0.980582
       4A1    -0.593852     5A1    -0.390629     1B2    -0.372336
       1B1    -0.372336

    Alpha Virtual:

       2B2    -0.150985     2B1    -0.150985     6A1     0.043878
       7A1     0.274877     3B1     0.285949     3B2     0.285949
       8A1     0.317062     9A1     0.549678     4B1     0.606709
       4B2     0.606709    10A1     0.631202     1A2     0.631202
       5B1     0.742541     5B2     0.742541    11A1     0.976516
      12A1     1.208683    13A1     1.465096     2A2     1.465096
       6B1     1.634073     6B2     1.634073    14A1     1.834055
       7B1     1.944140     7B2     1.944140    15A1     2.254092
       8B2     2.609288     8B1     2.609288     3A2     2.643257
      16A1     2.643258     9B1     2.790111     9B2     2.790111
      17A1     2.824125     4A2     2.869971    18A1     2.869971
      10B1     3.068855    10B2     3.068855    19A1     3.157324
      20A1     3.675458    11B2     3.677346    11B1     3.677346
      21A1     4.786262    12B2     5.093071    12B1     5.093071
      22A1     5.145808     5A2     5.145809    13B2     5.399424
      13B1     5.399424    23A1     5.800807     6A2     6.169997
      24A1     6.170050    14B1     6.489794    14B2     6.489794
      25A1     7.090698    26A1     8.248931

    Beta Occupied:

       1A1   -19.232726     2A1   -10.405308     3A1    -0.980582
       4A1    -0.593852     5A1    -0.390629     1B2    -0.372336
       1B1    -0.372336

    Beta Virtual:

       2B2    -0.150985     2B1    -0.150985     6A1     0.043878
       7A1     0.274877     3B1     0.285949     3B2     0.285949
       8A1     0.317062     9A1     0.549678     4B1     0.606709
       4B2     0.606709    10A1     0.631202     1A2     0.631202
       5B1     0.742541     5B2     0.742541    11A1     0.976516
      12A1     1.208683    13A1     1.465096     2A2     1.465096
       6B1     1.634073     6B2     1.634073    14A1     1.834055
       7B1     1.944140     7B2     1.944140    15A1     2.254092
       8B2     2.609288     8B1     2.609288     3A2     2.643257
      16A1     2.643258     9B1     2.790111     9B2     2.790111
      17A1     2.824125     4A2     2.869971    18A1     2.869971
      10B1     3.068855    10B2     3.068855    19A1     3.157324
      20A1     3.675458    11B2     3.677346    11B1     3.677346
      21A1     4.786262    12B2     5.093071    12B1     5.093071
      22A1     5.145808     5A2     5.145809    13B2     5.399424
      13B1     5.399424    23A1     5.800807     6A2     6.169997
      24A1     6.170050    14B1     6.489794    14B2     6.489794
      25A1     7.090698    26A1     8.248931

    Final Occupation by Irrep:
             A1    A2    B1    B2
    DOCC [     5,    0,    1,    1 ]
    SOCC [     0,    0,    0,    0 ]
    NA   [     5,    0,    1,    1 ]
    NB   [     5,    0,    1,    1 ]

  @DF-UKS Final Energy:  -113.17941117586822

   => Energetics <=

    Nuclear Repulsion Energy =             16.2294116522042486
    One-Electron Energy =                -186.1973760838352518
    Two-Electron Energy =                  67.7939085465638414
    DFT Exchange-Correlation Energy =     -11.0053552908010666
    Empirical Dispersion Energy =           0.0000000000000000
    VV10 Nonlocal Energy =                  0.0000000000000000
    Total Energy =                       -113.1794111758682249

  UHF NO Occupations:
  HONO-2 :    5 A1 2.0000000
  HONO-1 :    1 B1 2.0000000
  HONO-0 :    1 B2 2.0000000
  LUNO+0 :    6 A1 0.0000000
  LUNO+1 :    7 A1 0.0000000
  LUNO+2 :    8 A1 0.0000000
  LUNO+3 :    9 A1 0.0000000

Computation Completed

Properties will be evaluated at   0.000000,   0.000000,   0.000000 [a0]

Properties computed using the B3LYP density matrix

 Multipole Moments:

 ------------------------------------------------------------------------------------
     Multipole            Electronic (a.u.)      Nuclear  (a.u.)        Total (a.u.)
 ------------------------------------------------------------------------------------

 L = 1.  Multiply by 2.5417464519 to convert [e a0] to [Debye]
 Dipole X            :          0.0000000            0.0000000            0.0000000
 Dipole Y            :          0.0000000            0.0000000            0.0000000
 Dipole Z            :          0.5453608           -0.0032235            0.5421372
 Magnitude           :                                                    0.5421372

 L = 2.  Multiply by 1.3450342976 to convert [e a0^2] to [Debye ang]
 Quadrupole XX       :         -8.1315340            0.0000000           -8.1315340
 Quadrupole XY       :          0.0000000            0.0000000            0.0000000
 Quadrupole XZ       :          0.0000000            0.0000000            0.0000000
 Quadrupole YY       :         -8.1315340            0.0000000           -8.1315340
 Quadrupole YZ       :          0.0000000            0.0000000            0.0000000
 Quadrupole ZZ       :        -38.5960377           29.9909439           -8.6050938
 Traceless XX        :         10.1548346           -9.9969813            0.1578533
 Traceless YY        :         10.1548346           -9.9969813            0.1578533
 Traceless ZZ        :        -20.3096691           19.9939626           -0.3157065

 ------------------------------------------------------------------------------------
  ==> Computing MBIS Charges <==

  Electron Count from Grid (Expected Number): 14.00000 (14.00000)
  Difference: -0.00000

  MBIS Charges: (a.u.)
   Center  Symbol  Z      Pop.       Charge
      1       O    8    8.293146   -0.293146
      2       C    6    5.706853    0.293147

  MBIS Dipoles: [e a0]
   Center  Symbol  Z        X           Y           Z
      1       O    8    0.000000   -0.000000   -0.145609
      2       C    6   -0.000000    0.000000   -0.179264

  MBIS Quadrupoles: [e a0^2]
   Center  Symbol  Z      XX        XY        XZ        YY        YZ        ZZ
      1       O    8   -4.1622   -0.0000   -0.0000   -4.1622    0.0000   -4.1701
      2       C    6   -3.9693    0.0000    0.0000   -3.9693    0.0000   -4.5642

  MBIS Octupoles: [e a0^3]
   Center  Symbol  Z      XXX       XXY       XXZ       XYY       XYZ       XZZ       YYY       YYZ       YZZ       ZZZ
      1       O    8   -0.0000   -0.0000   -0.1544   -0.0000    0.0000   -0.0000   -0.0000   -0.1544   -0.0000   -0.4978
      2       C    6   -0.0000   -0.0000    0.0427    0.0000    0.0000    0.0000    0.0000    0.0427    0.0000   -0.0929

  MBIS Radial Moments:
   Center  Symbol  Z      [a0^2]      [a0^3]      [a0^4]
      1       O    8   12.494538   24.138580   55.706322
      2       C    6   12.502898   30.210775   86.649053

  MBIS Valence Widths: [a0]
   Center  Symbol  Z     Width
      1       O    8    0.397568
      2       C    6    0.514017

*** tstop() called on Mac.lan at Sun Aug 10 17:18:49 2025
Module time:
	user time   =       4.11 seconds =       0.07 minutes
	system time =       1.44 seconds =       0.02 minutes
	total time  =          1 seconds =       0.02 minutes
Total time:
	user time   =      18.20 seconds =       0.30 minutes
	system time =       3.49 seconds =       0.06 minutes
	total time  =          2 seconds =       0.03 minutes

    Psi4 stopped on: Sunday, 10 August 2025 05:18PM
    Psi4 wall time for execution: 0:00:02.10

*** Psi4 exiting successfully. Buy a developer a beer!
