                               Psi4 1.9.1 release

  ==> Input File <==

--------------------------------------------------------------------------
molecule {
0 3
O           0.000000           0.000000           0.000000
O           0.000000           0.000000           1.144306
}

set {
basis              cc-pvtz
reference          uks
maxiter            500
DAMPING_PERCENTAGE 1
E_CONVERGENCE      1.0E-8
D_CONVERGENCE      1.0E-8
DIIS_MAX_VECS      400
MBIS_MAXITER       8000
guess              read
}

E, wfn = energy('b3lyp', restart_file='last_wfn', return_wfn=True)
properties('b3lyp','MBIS_CHARGES', wfn=wfn)
wfn.to_file('last_wfn')
--------------------------------------------------------------------------

    Molecular point group: d2h
  Charge       = 0
  Multiplicity = 3
  Basis Set: CC-PVTZ
    Blend: CC-PVTZ
  Basis Set: (CC-PVTZ AUX)
    Blend: CC-PVTZ-JKFIT
  @DF-UKS Final Energy:  -150.37465645021959
    Total Energy =                       -150.3746564502195895
 Dipole X            :          0.0000000            0.0000000            0.0000000
 Dipole Y            :          0.0000000            0.0000000            0.0000000
 Dipole Z            :          0.0000000            0.0000000            0.0000000
 Magnitude           :                                                    0.0000000
    Molecular point group: d2h

    Geometry (in Angstrom), charge = 0, multiplicity = 3:

       Center              X                  Y                   Z               Mass
    ------------   -----------------  -----------------  -----------------  -----------------
         O            0.000000000000     0.000000000000    -0.572153000000    15.994914619570
         O            0.000000000000     0.000000000000     0.572153000000    15.994914619570

  Charge       = 0
  Multiplicity = 3
  Basis Set: CC-PVTZ
    Blend: CC-PVTZ
  Basis Set: (CC-PVTZ AUX)
    Blend: CC-PVTZ-JKFIT

    Orbital Energies [Eh]
    ---------------------

    Alpha Occupied:

       1Ag   -19.282277     1B1u  -19.281950     2Ag    -1.361908
       2B1u   -0.822253     1B2u   -0.590785     1B3u   -0.590785
       3Ag    -0.563384     1B2g   -0.290807     1B3g   -0.290807

    Alpha Virtual:

       3B1u    0.244783     2B2u    0.490555     2B3u    0.490555
       4B1u    0.529185     4Ag     0.539969     2B3g    0.614914
       2B2g    0.614914     5Ag     0.653195     1B1g    1.185043
       6Ag     1.185043     5B1u    1.190399     3B3u    1.322634
       3B2u    1.322634     1Au     1.624078     6B1u    1.624078
       7Ag     2.141221     7B1u    2.144839     3B3g    2.192262
       3B2g    2.192262     4B2u    3.394791     4B3u    3.394791
       8Ag     3.604366     4B3g    3.708029     4B2g    3.708029
       2B1g    4.521886     9Ag     4.521886     5B2u    4.651417
       5B3u    4.651417     8B1u    4.691787     6B2u    4.839821
       6B3u    4.839821    10Ag     4.963208     5B3g    5.157363
       5B2g    5.157363     9B1u    5.627548    10B1u    5.797597
       2Au     5.797598    11Ag     5.988620     3B1g    5.988628
      11B1u    6.229144     3Au     6.229152     6B2g    6.308989
       6B3g    6.308989     7B3u    6.455168     7B2u    6.455168
      12B1u    6.835167    12Ag     7.036082     7B3g    7.379835
       7B2g    7.379835    13Ag     7.551948    13B1u   13.691704

    Beta Occupied:

       1Ag   -19.251892     1B1u  -19.251407     2Ag    -1.308499
       2B1u   -0.733887     3Ag    -0.522404     1B2u   -0.490324
       1B3u   -0.490324

    Beta Virtual:

       1B2g   -0.094999     1B3g   -0.094999     3B1u    0.277279
       2B2u    0.523875     2B3u    0.523875     4Ag     0.548478
       4B1u    0.555590     2B3g    0.657809     2B2g    0.657809
       5Ag     0.676045     5B1u    1.223000     1B1g    1.226456
       6Ag     1.226456     3B3u    1.354560     3B2u    1.354560
       1Au     1.686447     6B1u    1.686447     7B1u    2.165677
       7Ag     2.171403     3B3g    2.229191     3B2g    2.229191
       4B2u    3.470924     4B3u    3.470924     8Ag     3.626774
       4B3g    3.784412     4B2g    3.784412     2B1g    4.560896
       9Ag     4.560897     5B2u    4.683742     5B3u    4.683742
       8B1u    4.729014     6B2u    4.909631     6B3u    4.909631
      10Ag     4.994736     5B3g    5.232568     5B2g    5.232568
       9B1u    5.668292     2Au     5.859729    10B1u    5.859729
      11Ag     6.098027     3B1g    6.098035    11B1u    6.326880
       3Au     6.326888     6B2g    6.368570     6B3g    6.368570
       7B3u    6.510544     7B2u    6.510544    12B1u    6.866972
      12Ag     7.088631     7B3g    7.416124     7B2g    7.416124
      13Ag     7.583281    13B1u   13.735558

    Final Occupation by Irrep:
             Ag   B1g   B2g   B3g    Au   B1u   B2u   B3u
    DOCC [     3,    0,    0,    0,    0,    2,    1,    1 ]
    SOCC [     0,    0,    1,    1,    0,    0,    0,    0 ]
    NA   [     3,    0,    1,    1,    0,    2,    1,    1 ]
    NB   [     3,    0,    0,    0,    0,    2,    1,    1 ]

  @DF-UKS Final Energy:  -150.37465645017986

   => Energetics <=

    Nuclear Repulsion Energy =             29.5964029576704135
    One-Electron Energy =                -264.8923966822528655
    Two-Electron Energy =                  98.7460674039161859
    DFT Exchange-Correlation Energy =     -13.8247301295136058
    Empirical Dispersion Energy =           0.0000000000000000
    VV10 Nonlocal Energy =                  0.0000000000000000
    Total Energy =                       -150.3746564501798559

  UHF NO Occupations:
  HONO-2 :    1B2u 1.9986676
  HONO-1 :    1B2g 1.0000000
  HONO-0 :    1B3g 1.0000000
  LUNO+0 :    2B2u 0.0013324
  LUNO+1 :    2B3u 0.0013324
  LUNO+2 :    3B1u 0.0007497
  LUNO+3 :    4 Ag 0.0002789

Computation Completed

Properties will be evaluated at   0.000000,   0.000000,   0.000000 [a0]

Properties computed using the B3LYP density matrix

 Multipole Moments:

 ------------------------------------------------------------------------------------
     Multipole            Electronic (a.u.)      Nuclear  (a.u.)        Total (a.u.)
 ------------------------------------------------------------------------------------

 L = 1.  Multiply by 2.5417464519 to convert [e a0] to [Debye]
 Dipole X            :          0.0000000            0.0000000            0.0000000
 Dipole Y            :          0.0000000            0.0000000            0.0000000
 Dipole Z            :          0.0000000            0.0000000            0.0000000
 Magnitude           :                                                    0.0000000

 L = 2.  Multiply by 1.3450342976 to convert [e a0^2] to [Debye ang]
 Quadrupole XX       :         -7.2835864            0.0000000           -7.2835864
 Quadrupole XY       :          0.0000000            0.0000000            0.0000000
 Quadrupole XZ       :          0.0000000            0.0000000            0.0000000
 Quadrupole YY       :         -7.2835864            0.0000000           -7.2835864
 Quadrupole YZ       :          0.0000000            0.0000000            0.0000000
 Quadrupole ZZ       :        -26.5576276           18.7043265           -7.8533011
 Traceless XX        :          6.4246804           -6.2347755            0.1899049
 Traceless YY        :          6.4246804           -6.2347755            0.1899049
 Traceless ZZ        :        -12.8493609           12.4695510           -0.3798098

 ------------------------------------------------------------------------------------
  ==> Computing MBIS Charges <==

  Electron Count from Grid (Expected Number): 16.00000 (16.00000)
  Difference:  0.00000

  MBIS Charges: (a.u.)
   Center  Symbol  Z      Pop.       Charge
      1       O    8    8.000001   -0.000001
      2       O    8    8.000001   -0.000001

  MBIS Dipoles: [e a0]
   Center  Symbol  Z        X           Y           Z
      1       O    8    0.000000    0.000000    0.123174
      2       O    8    0.000000   -0.000000   -0.123174

  MBIS Quadrupoles: [e a0^2]
   Center  Symbol  Z      XX        XY        XZ        YY        YZ        ZZ
      1       O    8   -3.6418   -0.0000    0.0000   -3.6418   -0.0000   -3.6603
      2       O    8   -3.6418   -0.0000   -0.0000   -3.6418    0.0000   -3.6603

  MBIS Octupoles: [e a0^3]
   Center  Symbol  Z      XXX       XXY       XXZ       XYY       XYZ       XZZ       YYY       YYZ       YZZ       ZZZ
      1       O    8    0.0000   -0.0000    0.1449    0.0000   -0.0000    0.0000   -0.0000    0.1449   -0.0000   -0.0692
      2       O    8    0.0000   -0.0000   -0.1449    0.0000    0.0000   -0.0000   -0.0000   -0.1449   -0.0000    0.0692

  MBIS Radial Moments:
   Center  Symbol  Z      [a0^2]      [a0^3]      [a0^4]
      1       O    8   10.943882   20.251107   45.001585
      2       O    8   10.943882   20.251107   45.001585

  MBIS Valence Widths: [a0]
   Center  Symbol  Z     Width
      1       O    8    0.379520
      2       O    8    0.379520

*** tstop() called on Mac.lan at Sun Aug 10 17:00:43 2025
Module time:
	user time   =       4.83 seconds =       0.08 minutes
	system time =       2.23 seconds =       0.04 minutes
	total time  =          0 seconds =       0.00 minutes
Total time:
	user time   =      17.06 seconds =       0.28 minutes
	system time =       4.25 seconds =       0.07 minutes
	total time  =          2 seconds =       0.03 minutes

    Psi4 stopped on: Sunday, 10 August 2025 05:00PM
    Psi4 wall time for execution: 0:00:02.08

*** Psi4 exiting successfully. Buy a developer a beer!
