                               Psi4 1.9.1 release

  ==> Input File <==

--------------------------------------------------------------------------
molecule {
0 1
H           0.000000           0.000000           0.000000
H           0.000000           0.000000           0.677675
}

set {
basis              cc-pvtz
reference          uks
maxiter            500
DAMPING_PERCENTAGE 1
E_CONVERGENCE      1.0E-8
D_CONVERGENCE      1.0E-8
DIIS_MAX_VECS      400
MBIS_MAXITER       8000
guess              read
}

E, wfn = energy('b3lyp', restart_file='last_wfn', return_wfn=True)
properties('b3lyp','MBIS_CHARGES', wfn=wfn)
wfn.to_file('last_wfn')
--------------------------------------------------------------------------

    Molecular point group: d2h
  Charge       = 0
  Multiplicity = 1
  Basis Set: CC-PVTZ
    Blend: CC-PVTZ
  Basis Set: (CC-PVTZ AUX)
    Blend: CC-PVTZ-JKFIT
  @DF-UKS Final Energy:    -1.17673061355524
    Total Energy =                         -1.1767306135552396
 Dipole X            :          0.0000000            0.0000000            0.0000000
 Dipole Y            :          0.0000000            0.0000000            0.0000000
 Dipole Z            :          0.0000000            0.0000000            0.0000000
 Magnitude           :                                                    0.0000000
    Molecular point group: d2h

    Geometry (in Angstrom), charge = 0, multiplicity = 1:

       Center              X                  Y                   Z               Mass
    ------------   -----------------  -----------------  -----------------  -----------------
         H            0.000000000000     0.000000000000    -0.338837500000     1.007825032230
         H            0.000000000000     0.000000000000     0.338837500000     1.007825032230

  Charge       = 0
  Multiplicity = 1
  Basis Set: CC-PVTZ
    Blend: CC-PVTZ
  Basis Set: (CC-PVTZ AUX)
    Blend: CC-PVTZ-JKFIT

    Orbital Energies [Eh]
    ---------------------

    Alpha Occupied:

       1Ag    -0.448206

    Alpha Virtual:

       1B1u    0.070335     2Ag     0.191152     2B1u    0.495935
       1B3u    0.517801     1B2u    0.517801     3Ag     0.929010
       1B3g    0.948582     1B2g    0.948582     3B1u    1.386943
       4Ag     2.057790     4B1u    2.065674     5Ag     2.890335
       1B1g    2.890335     2B3u    3.108464     2B2u    3.108464
       6Ag     3.380894     2B3g    3.544253     2B2g    3.544253
       5B1u    3.861136     1Au     3.861136     3B3u    3.873090
       3B2u    3.873090     6B1u    4.555753     3B2g    5.647941
       3B3g    5.647941     7Ag     5.721736     7B1u    6.917088

    Beta Occupied:

       1Ag    -0.448206

    Beta Virtual:

       1B1u    0.070335     2Ag     0.191152     2B1u    0.495935
       1B3u    0.517801     1B2u    0.517801     3Ag     0.929010
       1B3g    0.948582     1B2g    0.948582     3B1u    1.386943
       4Ag     2.057790     4B1u    2.065674     5Ag     2.890335
       1B1g    2.890335     2B3u    3.108464     2B2u    3.108464
       6Ag     3.380894     2B3g    3.544253     2B2g    3.544253
       5B1u    3.861136     1Au     3.861136     3B3u    3.873090
       3B2u    3.873090     6B1u    4.555753     3B2g    5.647941
       3B3g    5.647941     7Ag     5.721736     7B1u    6.917088

    Final Occupation by Irrep:
             Ag   B1g   B2g   B3g    Au   B1u   B2u   B3u
    DOCC [     1,    0,    0,    0,    0,    0,    0,    0 ]
    SOCC [     0,    0,    0,    0,    0,    0,    0,    0 ]
    NA   [     1,    0,    0,    0,    0,    0,    0,    0 ]
    NB   [     1,    0,    0,    0,    0,    0,    0,    0 ]

  @DF-UKS Final Energy:    -1.17673061369766

   => Energetics <=

    Nuclear Repulsion Energy =              0.7808716725126350
    One-Electron Energy =                  -2.5910051121209845
    Two-Electron Energy =                   1.2247559163946788
    DFT Exchange-Correlation Energy =      -0.5913530904839943
    Empirical Dispersion Energy =           0.0000000000000000
    VV10 Nonlocal Energy =                  0.0000000000000000
    Total Energy =                         -1.1767306136976650

  UHF NO Occupations:
  HONO-0 :    1 Ag 2.0000000
  LUNO+0 :    2 Ag 0.0000000
  LUNO+1 :    3 Ag 0.0000000
  LUNO+2 :    4 Ag 0.0000000
  LUNO+3 :    3B3u 0.0000000

Computation Completed

Properties will be evaluated at   0.000000,   0.000000,   0.000000 [a0]

Properties computed using the B3LYP density matrix

 Multipole Moments:

 ------------------------------------------------------------------------------------
     Multipole            Electronic (a.u.)      Nuclear  (a.u.)        Total (a.u.)
 ------------------------------------------------------------------------------------

 L = 1.  Multiply by 2.5417464519 to convert [e a0] to [Debye]
 Dipole X            :          0.0000000            0.0000000            0.0000000
 Dipole Y            :          0.0000000            0.0000000            0.0000000
 Dipole Z            :          0.0000000            0.0000000            0.0000000
 Magnitude           :                                                    0.0000000

 L = 2.  Multiply by 1.3450342976 to convert [e a0^2] to [Debye ang]
 Quadrupole XX       :         -1.4953366            0.0000000           -1.4953366
 Quadrupole XY       :          0.0000000            0.0000000            0.0000000
 Quadrupole XZ       :          0.0000000            0.0000000            0.0000000
 Quadrupole YY       :         -1.4953366            0.0000000           -1.4953366
 Quadrupole YZ       :          0.0000000            0.0000000            0.0000000
 Quadrupole ZZ       :         -1.9563744            0.8199940           -1.1363804
 Traceless XX        :          0.1536793           -0.2733313           -0.1196521
 Traceless YY        :          0.1536793           -0.2733313           -0.1196521
 Traceless ZZ        :         -0.3073586            0.5466627            0.2393041

 ------------------------------------------------------------------------------------
  ==> Computing MBIS Charges <==

  Electron Count from Grid (Expected Number):  2.00000 ( 2.00000)
  Difference: -0.00000

  MBIS Charges: (a.u.)
   Center  Symbol  Z      Pop.       Charge
      1       H    1    1.000000    0.000000
      2       H    1    1.000000    0.000000

  MBIS Dipoles: [e a0]
   Center  Symbol  Z        X           Y           Z
      1       H    1   -0.000000    0.000000   -0.074047
      2       H    1    0.000000   -0.000000    0.074047

  MBIS Quadrupoles: [e a0^2]
   Center  Symbol  Z      XX        XY        XZ        YY        YZ        ZZ
      1       H    1   -0.7477    0.0000   -0.0000   -0.7477   -0.0000   -0.6630
      2       H    1   -0.7477    0.0000    0.0000   -0.7477    0.0000   -0.6630

  MBIS Octupoles: [e a0^3]
   Center  Symbol  Z      XXX       XXY       XXZ       XYY       XYZ       XZZ       YYY       YYZ       YZZ       ZZZ
      1       H    1   -0.0000    0.0000   -0.0340    0.0000    0.0000    0.0000    0.0000   -0.0340    0.0000   -0.0413
      2       H    1    0.0000    0.0000    0.0340    0.0000    0.0000    0.0000    0.0000    0.0340    0.0000    0.0413

  MBIS Radial Moments:
   Center  Symbol  Z      [a0^2]      [a0^3]      [a0^4]
      1       H    1    2.158353    4.693222   12.451014
      2       H    1    2.158353    4.693222   12.451014

  MBIS Valence Widths: [a0]
   Center  Symbol  Z     Width
      1       H    1    0.421281
      2       H    1    0.421281

*** tstop() called on Mac.lan at Sun Aug 10 16:59:15 2025
Module time:
	user time   =       0.41 seconds =       0.01 minutes
	system time =       1.39 seconds =       0.02 minutes
	total time  =          0 seconds =       0.00 minutes
Total time:
	user time   =       1.26 seconds =       0.02 minutes
	system time =       3.64 seconds =       0.06 minutes
	total time  =          1 seconds =       0.02 minutes

    Psi4 stopped on: Sunday, 10 August 2025 04:59PM
    Psi4 wall time for execution: 0:00:00.76

*** Psi4 exiting successfully. Buy a developer a beer!
