                               Psi4 1.9.1 release

  ==> Input File <==

--------------------------------------------------------------------------
molecule {
0 2
N           0.000000           0.000000           0.000000
C           0.000000           0.000000           1.039385
}

set {
basis              cc-pvtz
reference          uks
maxiter            500
DAMPING_PERCENTAGE 1
E_CONVERGENCE      1.0E-8
D_CONVERGENCE      1.0E-8
DIIS_MAX_VECS      400
MBIS_MAXITER       8000
guess              read
}

E, wfn = energy('b3lyp', restart_file='last_wfn', return_wfn=True)
properties('b3lyp','MBIS_CHARGES', wfn=wfn)
wfn.to_file('last_wfn')
--------------------------------------------------------------------------

    Molecular point group: c2v
  Charge       = 0
  Multiplicity = 2
  Basis Set: CC-PVTZ
    Blend: CC-PVTZ
  Basis Set: (CC-PVTZ AUX)
    Blend: CC-PVTZ-JKFIT
  @DF-UKS Final Energy:   -92.70473184250733
    Total Energy =                        -92.7047318425073286
 Dipole X            :          0.0000000            0.0000000            0.0000000
 Dipole Y            :          0.0000000            0.0000000            0.0000000
 Dipole Z            :          0.6150685            0.0013932            0.6164617
 Magnitude           :                                                    0.6164617
    Molecular point group: c2v

    Geometry (in Angstrom), charge = 0, multiplicity = 2:

       Center              X                  Y                   Z               Mass
    ------------   -----------------  -----------------  -----------------  -----------------
         N            0.000000000000     0.000000000000    -0.479659443259    14.003074004430
         C            0.000000000000     0.000000000000     0.559725556741    12.000000000000

  Charge       = 0
  Multiplicity = 2
  Basis Set: CC-PVTZ
    Blend: CC-PVTZ
  Basis Set: (CC-PVTZ AUX)
    Blend: CC-PVTZ-JKFIT

    Orbital Energies [Eh]
    ---------------------

    Alpha Occupied:

       1A1   -14.346767     2A1   -10.259772     3A1    -1.006518
       4A1    -0.479356     1B1    -0.424854     1B2    -0.424854
       5A1    -0.406733

    Alpha Virtual:

       2B2     0.031639     2B1     0.031639     6A1     0.170207
       7A1     0.257327     3B2     0.276521     3B1     0.276521
       8A1     0.444754     4B2     0.523845     4B1     0.523845
       9A1     0.616712     1A2     0.616712    10A1     0.723291
       5B2     0.869218     5B1     0.869218    11A1     0.921801
      12A1     1.197576     2A2     1.197576    13A1     1.427683
       6B2     1.554933     6B1     1.554933    14A1     1.842748
       7B2     1.922253     7B1     1.922253    15A1     2.266200
       8B1     2.607056     8B2     2.607056    16A1     2.741974
      17A1     2.761087     3A2     2.761087     9B1     2.831696
       9B2     2.831696    18A1     2.914982     4A2     2.914982
      10B1     3.018162    10B2     3.018162    19A1     3.177888
      11B2     3.481308    11B1     3.481308    12B1     3.975921
      12B2     3.975921    20A1     4.229789     5A2     4.502568
      21A1     4.502569    22A1     4.690225     6A2     4.690225
      13B2     4.876487    13B1     4.876487    23A1     5.185255
      24A1     5.444905    14B2     5.875076    14B1     5.875076
      25A1     6.750939    26A1    14.607056

    Beta Occupied:

       1A1   -14.343465     2A1   -10.242305     3A1    -0.985836
       1B1    -0.415045     1B2    -0.415045     4A1    -0.412801

    Beta Virtual:

       5A1    -0.248568     2B2     0.054674     2B1     0.054674
       6A1     0.177197     3B2     0.287673     3B1     0.287673
       7A1     0.300410     8A1     0.456057     4B2     0.527345
       4B1     0.527345     9A1     0.628688     1A2     0.628688
      10A1     0.769128     5B2     0.899255     5B1     0.899255
      11A1     0.929815     2A2     1.200354    12A1     1.200354
      13A1     1.471273     6B2     1.567616     6B1     1.567616
      14A1     1.867085     7B2     1.940033     7B1     1.940033
      15A1     2.318271     8B1     2.625627     8B2     2.625627
      16A1     2.771634     3A2     2.771634    17A1     2.780692
       9B1     2.901443     9B2     2.901443    18A1     2.969426
       4A2     2.969426    10B1     3.032006    10B2     3.032006
      19A1     3.264614    11B2     3.514533    11B1     3.514533
      12B1     3.972082    12B2     3.972082    20A1     4.258179
       5A2     4.496856    21A1     4.496858    22A1     4.700675
       6A2     4.700675    13B2     4.892195    13B1     4.892195
      23A1     5.213450    24A1     5.472662    14B2     5.901897
      14B1     5.901897    25A1     6.764439    26A1    14.631220

    Final Occupation by Irrep:
             A1    A2    B1    B2
    DOCC [     4,    0,    1,    1 ]
    SOCC [     1,    0,    0,    0 ]
    NA   [     5,    0,    1,    1 ]
    NB   [     4,    0,    1,    1 ]

  @DF-UKS Final Energy:   -92.70473184548848

   => Energetics <=

    Nuclear Repulsion Energy =             21.3832630335631286
    One-Electron Energy =                -166.8437892751345544
    Two-Electron Energy =                  62.7163499675779406
    DFT Exchange-Correlation Energy =      -9.9605555714950089
    Empirical Dispersion Energy =           0.0000000000000000
    VV10 Nonlocal Energy =                  0.0000000000000000
    Total Energy =                        -92.7047318454884817

  UHF NO Occupations:
  HONO-2 :    1 B1 1.9987362
  HONO-1 :    1 B2 1.9987362
  HONO-0 :    5 A1 1.0000000
  LUNO+0 :    2 B1 0.0012638
  LUNO+1 :    2 B2 0.0012638
  LUNO+2 :    6 A1 0.0007073
  LUNO+3 :    7 A1 0.0000640

Computation Completed

Properties will be evaluated at   0.000000,   0.000000,   0.000000 [a0]

Properties computed using the B3LYP density matrix

 Multipole Moments:

 ------------------------------------------------------------------------------------
     Multipole            Electronic (a.u.)      Nuclear  (a.u.)        Total (a.u.)
 ------------------------------------------------------------------------------------

 L = 1.  Multiply by 2.5417464519 to convert [e a0] to [Debye]
 Dipole X            :          0.0000000            0.0000000            0.0000000
 Dipole Y            :          0.0000000            0.0000000            0.0000000
 Dipole Z            :          0.6150684            0.0013932            0.6164616
 Magnitude           :                                                    0.6164616

 L = 2.  Multiply by 1.3450342976 to convert [e a0^2] to [Debye ang]
 Quadrupole XX       :         -7.7852611            0.0000000           -7.7852611
 Quadrupole XY       :          0.0000000            0.0000000            0.0000000
 Quadrupole XZ       :          0.0000000            0.0000000            0.0000000
 Quadrupole YY       :         -7.7852611            0.0000000           -7.7852611
 Quadrupole YZ       :          0.0000000            0.0000000            0.0000000
 Quadrupole ZZ       :        -20.2380102           12.4639750           -7.7740352
 Traceless XX        :          4.1509163           -4.1546583           -0.0037420
 Traceless YY        :          4.1509163           -4.1546583           -0.0037420
 Traceless ZZ        :         -8.3018327            8.3093166            0.0074840

 ------------------------------------------------------------------------------------
  ==> Computing MBIS Charges <==

  Electron Count from Grid (Expected Number): 13.00000 (13.00000)
  Difference: -0.00000

  MBIS Charges: (a.u.)
   Center  Symbol  Z      Pop.       Charge
      1       N    7    7.321133   -0.321133
      2       C    6    5.678866    0.321134

  MBIS Dipoles: [e a0]
   Center  Symbol  Z        X           Y           Z
      1       N    7   -0.000000    0.000000   -0.137486
      2       C    6   -0.000000    0.000000    0.123192

  MBIS Quadrupoles: [e a0^2]
   Center  Symbol  Z      XX        XY        XZ        YY        YZ        ZZ
      1       N    7   -4.1716    0.0000    0.0000   -4.1716   -0.0000   -4.5743
      2       C    6   -3.6136    0.0000   -0.0000   -3.6136    0.0000   -3.8050

  MBIS Octupoles: [e a0^3]
   Center  Symbol  Z      XXX       XXY       XXZ       XYY       XYZ       XZZ       YYY       YYZ       YZZ       ZZZ
      1       N    7   -0.0000   -0.0000   -0.1403   -0.0000    0.0000   -0.0000   -0.0000   -0.1403    0.0000   -0.0868
      2       C    6   -0.0000   -0.0000    0.0236   -0.0000    0.0000   -0.0000    0.0000    0.0236    0.0000   -0.0307

  MBIS Radial Moments:
   Center  Symbol  Z      [a0^2]      [a0^3]      [a0^4]
      1       N    7   12.917584   27.212294   68.619707
      2       C    6   11.032258   25.360586   69.848629

  MBIS Valence Widths: [a0]
   Center  Symbol  Z     Width
      1       N    7    0.437740
      2       C    6    0.480385

*** tstop() called on Mac.lan at Sun Aug 10 17:12:56 2025
Module time:
	user time   =       4.40 seconds =       0.07 minutes
	system time =       2.00 seconds =       0.03 minutes
	total time  =          0 seconds =       0.00 minutes
Total time:
	user time   =      19.83 seconds =       0.33 minutes
	system time =       4.11 seconds =       0.07 minutes
	total time  =          2 seconds =       0.03 minutes

    Psi4 stopped on: Sunday, 10 August 2025 05:12PM
    Psi4 wall time for execution: 0:00:02.32

*** Psi4 exiting successfully. Buy a developer a beer!
