                               Psi4 1.9.1 release

  ==> Input File <==

--------------------------------------------------------------------------
molecule {
0 2
O           0.000000           0.000000           0.000000
N           0.000000           0.000000           1.003293
}

set {
basis              cc-pvtz
reference          uks
maxiter            500
DAMPING_PERCENTAGE 1
E_CONVERGENCE      1.0E-8
D_CONVERGENCE      1.0E-8
DIIS_MAX_VECS      400
MBIS_MAXITER       8000
guess              read
}

E, wfn = energy('b3lyp', restart_file='last_wfn', return_wfn=True)
properties('b3lyp','MBIS_CHARGES', wfn=wfn)
wfn.to_file('last_wfn')
--------------------------------------------------------------------------

    Molecular point group: c2v
  Charge       = 0
  Multiplicity = 2
  Basis Set: CC-PVTZ
    Blend: CC-PVTZ
  Basis Set: (CC-PVTZ AUX)
    Blend: CC-PVTZ-JKFIT
  @DF-UKS Final Energy:  -129.88279872641434
    Total Energy =                       -129.8827987264143360
 Dipole X            :          0.0000000            0.0000000            0.0000000
 Dipole Y            :          0.0000000            0.0000000            0.0000000
 Dipole Z            :         -0.1877083           -0.0038041           -0.1915125
 Magnitude           :                                                    0.1915125
    Molecular point group: c2v

    Geometry (in Angstrom), charge = 0, multiplicity = 2:

       Center              X                  Y                   Z               Mass
    ------------   -----------------  -----------------  -----------------  -----------------
         O            0.000000000000     0.000000000000    -0.468337604338    15.994914619570
         N            0.000000000000     0.000000000000     0.534955395662    14.003074004430

  Charge       = 0
  Multiplicity = 2
  Basis Set: CC-PVTZ
    Blend: CC-PVTZ
  Basis Set: (CC-PVTZ AUX)
    Blend: CC-PVTZ-JKFIT

    Orbital Energies [Eh]
    ---------------------

    Alpha Occupied:

       1A1   -19.260337     2A1   -14.417831     3A1    -1.370837
       4A1    -0.669442     1B1    -0.604373     1B2    -0.581337
       5A1    -0.496311     2B1    -0.151745

    Alpha Virtual:

       2B2    -0.042389     6A1     0.242807     3B1     0.396631
       3B2     0.400653     7A1     0.436753     8A1     0.527564
       4B1     0.596289     4B2     0.606246     9A1     0.809047
       1A2     0.907654    10A1     0.909369    11A1     1.178063
       5B1     1.210667     5B2     1.212739     2A2     1.563069
      12A1     1.564441    13A1     1.806624     6B1     2.051135
       6B2     2.054447    14A1     2.304894     7B1     2.796380
       7B2     2.809613    15A1     3.128384     8B1     3.662603
       8B2     3.670785    16A1     3.690324     9B1     3.752574
       9B2     3.753045     3A2     3.814394    17A1     3.816108
      10B1     4.104874    10B2     4.106230     4A2     4.368067
      18A1     4.372796    19A1     4.540831    11B1     4.788995
      11B2     4.789242    12B1     5.079593    12B2     5.079727
      20A1     5.263384     5A2     5.851572    21A1     5.852873
       6A2     6.151300    22A1     6.153347    13B1     6.540675
      13B2     6.542970    23A1     6.644213    24A1     7.120724
      14B2     7.471655    14B1     7.472086    25A1     7.898168
      26A1    17.615680

    Beta Occupied:

       1A1   -19.249278     2A1   -14.403728     3A1    -1.352514
       4A1    -0.637141     1B2    -0.571625     1B1    -0.534420
       5A1    -0.467174

    Beta Virtual:

       2B2    -0.027860     2B1     0.011730     6A1     0.247104
       3B2     0.405364     3B1     0.426593     7A1     0.448539
       8A1     0.536906     4B2     0.611332     4B1     0.630223
       9A1     0.830341     1A2     0.931746    10A1     0.932138
      11A1     1.187053     5B2     1.215795     5B1     1.244397
       2A2     1.589218    12A1     1.589287    13A1     1.820405
       6B2     2.058254     6B1     2.081556    14A1     2.319967
       7B2     2.820900     7B1     2.858849    15A1     3.143362
       8B2     3.678526    16A1     3.706663     8B1     3.710668
       9B2     3.791810     9B1     3.791909     3A2     3.834975
      17A1     3.835621    10B2     4.110528    10B1     4.143550
      18A1     4.424505     4A2     4.426389    19A1     4.560847
      11B2     4.793153    11B1     4.824626    12B2     5.106259
      12B1     5.106271    20A1     5.279146     5A2     5.874623
      21A1     5.874851     6A2     6.189762    22A1     6.189791
      13B2     6.546960    13B1     6.576343    23A1     6.654766
      24A1     7.136024    14B2     7.476276    14B1     7.507734
      25A1     7.916821    26A1    17.633189

    Final Occupation by Irrep:
             A1    A2    B1    B2
    DOCC [     5,    0,    1,    1 ]
    SOCC [     0,    0,    1,    0 ]
    NA   [     5,    0,    2,    1 ]
    NB   [     5,    0,    1,    1 ]

  @DF-UKS Final Energy:  -129.88279872543646

   => Energetics <=

    Nuclear Repulsion Energy =             29.5366595775311929
    One-Electron Energy =                -235.0433147203727060
    Two-Electron Energy =                  88.1906639341070075
    DFT Exchange-Correlation Energy =     -12.5668075167019513
    Empirical Dispersion Energy =           0.0000000000000000
    VV10 Nonlocal Energy =                  0.0000000000000000
    Total Energy =                       -129.8827987254364587

  UHF NO Occupations:
  HONO-2 :    5 A1 1.9996069
  HONO-1 :    1 B1 1.9994566
  HONO-0 :    2 B1 1.0000000
  LUNO+0 :    3 B1 0.0005434
  LUNO+1 :    6 A1 0.0003931
  LUNO+2 :    7 A1 0.0000962
  LUNO+3 :    2 B2 0.0000383

Computation Completed

Properties will be evaluated at   0.000000,   0.000000,   0.000000 [a0]

Properties computed using the B3LYP density matrix

 Multipole Moments:

 ------------------------------------------------------------------------------------
     Multipole            Electronic (a.u.)      Nuclear  (a.u.)        Total (a.u.)
 ------------------------------------------------------------------------------------

 L = 1.  Multiply by 2.5417464519 to convert [e a0] to [Debye]
 Dipole X            :          0.0000000            0.0000000            0.0000000
 Dipole Y            :          0.0000000            0.0000000            0.0000000
 Dipole Z            :         -0.1877083           -0.0038041           -0.1915124
 Magnitude           :                                                    0.1915124

 L = 2.  Multiply by 1.3450342976 to convert [e a0^2] to [Debye ang]
 Quadrupole XX       :         -7.7423223            0.0000000           -7.7423223
 Quadrupole XY       :          0.0000000            0.0000000            0.0000000
 Quadrupole XZ       :          0.0000000            0.0000000            0.0000000
 Quadrupole YY       :         -6.8447156            0.0000000           -6.8447156
 Quadrupole YZ       :          0.0000000            0.0000000            0.0000000
 Quadrupole ZZ       :        -21.9048776           13.4199253           -8.4849523
 Traceless XX        :          4.4216496           -4.4733084           -0.0516589
 Traceless YY        :          5.3192562           -4.4733084            0.8459478
 Traceless ZZ        :         -9.7409058            8.9466169           -0.7942889

 ------------------------------------------------------------------------------------
  ==> Computing MBIS Charges <==

  Electron Count from Grid (Expected Number): 15.00000 (15.00000)
  Difference:  0.00000

  MBIS Charges: (a.u.)
   Center  Symbol  Z      Pop.       Charge
      1       O    8    7.960537    0.039463
      2       N    7    7.039463   -0.039463

  MBIS Dipoles: [e a0]
   Center  Symbol  Z        X           Y           Z
      1       O    8    0.000000   -0.000000    0.086939
      2       N    7    0.000000    0.000000   -0.203631

  MBIS Quadrupoles: [e a0^2]
   Center  Symbol  Z      XX        XY        XZ        YY        YZ        ZZ
      1       O    8   -3.5088   -0.0000   -0.0000   -3.2393   -0.0000   -3.6446
      2       N    7   -4.2336   -0.0000   -0.0000   -3.6054   -0.0000   -4.2653

  MBIS Octupoles: [e a0^3]
   Center  Symbol  Z      XXX       XXY       XXZ       XYY       XYZ       XZZ       YYY       YYZ       YZZ       ZZZ
      1       O    8    0.0000   -0.0000    0.1766    0.0000   -0.0000   -0.0000   -0.0000    0.1134    0.0000    0.1355
      2       N    7    0.0000   -0.0000   -0.4679    0.0000    0.0000    0.0000   -0.0000   -0.1431   -0.0000   -0.1881

  MBIS Radial Moments:
   Center  Symbol  Z      [a0^2]      [a0^3]      [a0^4]
      1       O    8   10.392639   18.756874   40.746961
      2       N    7   12.104335   25.441340   63.928729

  MBIS Valence Widths: [a0]
   Center  Symbol  Z     Width
      1       O    8    0.370522
      2       N    7    0.434186

*** tstop() called on Mac.lan at Sun Aug 10 17:19:52 2025
Module time:
	user time   =       3.73 seconds =       0.06 minutes
	system time =       2.35 seconds =       0.04 minutes
	total time  =          0 seconds =       0.00 minutes
Total time:
	user time   =      17.09 seconds =       0.28 minutes
	system time =       4.58 seconds =       0.08 minutes
	total time  =          2 seconds =       0.03 minutes

    Psi4 stopped on: Sunday, 10 August 2025 05:19PM
    Psi4 wall time for execution: 0:00:02.11

*** Psi4 exiting successfully. Buy a developer a beer!
