                               Psi4 1.9.1 release

  ==> Input File <==

--------------------------------------------------------------------------
molecule {
0 2
N           0.000000           0.000000           0.000000
C           0.000000           0.000000           1.359744
}

set {
basis              cc-pvtz
reference          uks
maxiter            500
DAMPING_PERCENTAGE 1
E_CONVERGENCE      1.0E-8
D_CONVERGENCE      1.0E-8
DIIS_MAX_VECS      400
MBIS_MAXITER       8000
guess              read
}

E, wfn = energy('b3lyp', restart_file='last_wfn', return_wfn=True)
properties('b3lyp','MBIS_CHARGES', wfn=wfn)
wfn.to_file('last_wfn')
--------------------------------------------------------------------------

    Molecular point group: c2v
  Charge       = 0
  Multiplicity = 2
  Basis Set: CC-PVTZ
    Blend: CC-PVTZ
  Basis Set: (CC-PVTZ AUX)
    Blend: CC-PVTZ-JKFIT
  @DF-UKS Final Energy:   -92.69434720117388
    Total Energy =                        -92.6943472011738834
 Dipole X            :          0.0000000            0.0000000            0.0000000
 Dipole Y            :          0.0000000            0.0000000            0.0000000
 Dipole Z            :          0.4191524            0.0018226            0.4209750
 Magnitude           :                                                    0.4209750
    Molecular point group: c2v

    Geometry (in Angstrom), charge = 0, multiplicity = 2:

       Center              X                  Y                   Z               Mass
    ------------   -----------------  -----------------  -----------------  -----------------
         N            0.000000000000     0.000000000000    -0.627499963936    14.003074004430
         C            0.000000000000     0.000000000000     0.732244036064    12.000000000000

  Charge       = 0
  Multiplicity = 2
  Basis Set: CC-PVTZ
    Blend: CC-PVTZ
  Basis Set: (CC-PVTZ AUX)
    Blend: CC-PVTZ-JKFIT

    Orbital Energies [Eh]
    ---------------------

    Alpha Occupied:

       1A1   -14.433181     2A1   -10.343876     3A1    -0.900498
       4A1    -0.541585     5A1    -0.411570     1B2    -0.360464
       1B1    -0.360464

    Alpha Virtual:

       2B2    -0.079962     2B1    -0.079962     6A1     0.155423
       7A1     0.285245     3B2     0.288541     3B1     0.288541
       8A1     0.374956     9A1     0.438203     4B2     0.503566
       4B1     0.503566     1A2     0.624387    10A1     0.624387
       5B2     0.753807     5B1     0.753807    11A1     0.869852
      12A1     1.092313     2A2     1.109643    13A1     1.109643
       6B1     1.424248     6B2     1.424248    14A1     1.645528
       7B1     1.963445     7B2     1.963445    15A1     2.127378
       8B1     2.625431     8B2     2.625431     3A2     2.637562
      16A1     2.637562     9B2     2.656732     9B1     2.656732
      17A1     2.862368    10B2     2.894618    10B1     2.894618
       4A2     2.901792    18A1     2.901794    19A1     2.932410
      11B1     3.269483    11B2     3.269483    20A1     3.412692
      12B2     3.881180    12B1     3.881180     5A2     4.151725
      21A1     4.151725    22A1     4.468184     6A2     4.468194
      23A1     4.569273    13B2     4.599678    13B1     4.599678
      24A1     5.037236    14B1     5.081791    14B2     5.081791
      25A1     5.387482    26A1     9.290134

    Beta Occupied:

       1A1   -14.426316     2A1   -10.330904     3A1    -0.874083
       4A1    -0.473888     1B2    -0.353029     1B1    -0.353029

    Beta Virtual:

       5A1    -0.255357     2B2    -0.061538     2B1    -0.061538
       6A1     0.165609     3B2     0.296027     3B1     0.296027
       7A1     0.318965     8A1     0.405426     9A1     0.474315
       4B2     0.504655     4B1     0.504655     1A2     0.632300
      10A1     0.632300     5B1     0.782262     5B2     0.782262
      11A1     0.882658     2A2     1.110683    12A1     1.110683
      13A1     1.127408     6B1     1.446101     6B2     1.446101
      14A1     1.673885     7B1     1.975826     7B2     1.975826
      15A1     2.176201     8B1     2.637516     8B2     2.637516
       3A2     2.659357    16A1     2.659358     9B2     2.677783
       9B1     2.677783    17A1     2.910446     4A2     2.926142
      18A1     2.926145    10B2     2.929761    10B1     2.929761
      19A1     2.991111    11B1     3.309174    11B2     3.309174
      20A1     3.458835    12B2     3.876063    12B1     3.876063
      21A1     4.161395     5A2     4.161395    22A1     4.469373
       6A2     4.469383    23A1     4.610333    13B2     4.631033
      13B1     4.631033    24A1     5.083781    14B1     5.113141
      14B2     5.113141    25A1     5.405608    26A1     9.308996

    Final Occupation by Irrep:
             A1    A2    B1    B2
    DOCC [     4,    0,    1,    1 ]
    SOCC [     1,    0,    0,    0 ]
    NA   [     5,    0,    1,    1 ]
    NB   [     4,    0,    1,    1 ]

  @DF-UKS Final Energy:   -92.69434720111673

   => Energetics <=

    Nuclear Repulsion Energy =             16.3453141533553392
    One-Electron Energy =                -156.9263411426819630
    Two-Electron Energy =                  57.5867226996991377
    DFT Exchange-Correlation Energy =      -9.7000429114892359
    Empirical Dispersion Energy =           0.0000000000000000
    VV10 Nonlocal Energy =                  0.0000000000000000
    Total Energy =                        -92.6943472011167273

  UHF NO Occupations:
  HONO-2 :    1 B2 1.9986823
  HONO-1 :    4 A1 1.9977720
  HONO-0 :    5 A1 1.0000000
  LUNO+0 :    6 A1 0.0022280
  LUNO+1 :    2 B1 0.0013177
  LUNO+2 :    2 B2 0.0013177
  LUNO+3 :    7 A1 0.0001715

Computation Completed

Properties will be evaluated at   0.000000,   0.000000,   0.000000 [a0]

Properties computed using the B3LYP density matrix

 Multipole Moments:

 ------------------------------------------------------------------------------------
     Multipole            Electronic (a.u.)      Nuclear  (a.u.)        Total (a.u.)
 ------------------------------------------------------------------------------------

 L = 1.  Multiply by 2.5417464519 to convert [e a0] to [Debye]
 Dipole X            :          0.0000000            0.0000000            0.0000000
 Dipole Y            :          0.0000000            0.0000000            0.0000000
 Dipole Z            :          0.4191526            0.0018226            0.4209752
 Magnitude           :                                                    0.4209752

 L = 2.  Multiply by 1.3450342976 to convert [e a0^2] to [Debye ang]
 Quadrupole XX       :         -8.5982724            0.0000000           -8.5982724
 Quadrupole XY       :          0.0000000            0.0000000            0.0000000
 Quadrupole XZ       :          0.0000000            0.0000000            0.0000000
 Quadrupole YY       :         -8.5982724            0.0000000           -8.5982724
 Quadrupole YZ       :          0.0000000            0.0000000            0.0000000
 Quadrupole ZZ       :        -28.9535111           21.3313322           -7.6221789
 Traceless XX        :          6.7850796           -7.1104441           -0.3253645
 Traceless YY        :          6.7850796           -7.1104441           -0.3253645
 Traceless ZZ        :        -13.5701591           14.2208882            0.6507290

 ------------------------------------------------------------------------------------
  ==> Computing MBIS Charges <==

  Electron Count from Grid (Expected Number): 13.00000 (13.00000)
  Difference:  0.00000

  MBIS Charges: (a.u.)
   Center  Symbol  Z      Pop.       Charge
      1       N    7    7.193684   -0.193684
      2       C    6    5.806317    0.193683

  MBIS Dipoles: [e a0]
   Center  Symbol  Z        X           Y           Z
      1       N    7   -0.000000   -0.000000   -0.234989
      2       C    6   -0.000000    0.000000    0.158286

  MBIS Quadrupoles: [e a0^2]
   Center  Symbol  Z      XX        XY        XZ        YY        YZ        ZZ
      1       N    7   -4.4124   -0.0000    0.0000   -4.4124    0.0000   -4.4416
      2       C    6   -4.1858   -0.0000    0.0000   -4.1858    0.0000   -4.2745

  MBIS Octupoles: [e a0^3]
   Center  Symbol  Z      XXX       XXY       XXZ       XYY       XYZ       XZZ       YYY       YYZ       YZZ       ZZZ
      1       N    7   -0.0000    0.0000   -0.3450    0.0000    0.0000   -0.0000   -0.0000   -0.3450   -0.0000   -0.8452
      2       C    6   -0.0000   -0.0000    0.3048   -0.0000   -0.0000    0.0000    0.0000    0.3048   -0.0000    0.6206

  MBIS Radial Moments:
   Center  Symbol  Z      [a0^2]      [a0^3]      [a0^4]
      1       N    7   13.266441   28.589800   73.431255
      2       C    6   12.646148   30.429494   87.058573

  MBIS Valence Widths: [a0]
   Center  Symbol  Z     Width
      1       N    7    0.450207
      2       C    6    0.509817

*** tstop() called on Mac.lan at Sun Aug 10 17:14:09 2025
Module time:
	user time   =       3.46 seconds =       0.06 minutes
	system time =       2.58 seconds =       0.04 minutes
	total time  =          0 seconds =       0.00 minutes
Total time:
	user time   =      22.74 seconds =       0.38 minutes
	system time =       4.74 seconds =       0.08 minutes
	total time  =          2 seconds =       0.03 minutes

    Psi4 stopped on: Sunday, 10 August 2025 05:14PM
    Psi4 wall time for execution: 0:00:02.66

*** Psi4 exiting successfully. Buy a developer a beer!
