                               Psi4 1.9.1 release

  ==> Input File <==

--------------------------------------------------------------------------
molecule {
0 2
O           0.000000           0.000000           0.000000
H           0.000000           0.000000           0.710070
}

set {
basis              cc-pvtz
reference          uks
maxiter            500
DAMPING_PERCENTAGE 1
E_CONVERGENCE      1.0E-8
D_CONVERGENCE      1.0E-8
DIIS_MAX_VECS      400
MBIS_MAXITER       8000
guess              read
}

E, wfn = energy('b3lyp', restart_file='last_wfn', return_wfn=True)
properties('b3lyp','MBIS_CHARGES', wfn=wfn)
wfn.to_file('last_wfn')
--------------------------------------------------------------------------

    Molecular point group: c2v
  Charge       = 0
  Multiplicity = 2
  Basis Set: CC-PVTZ
    Blend: CC-PVTZ
  Basis Set: (CC-PVTZ AUX)
    Blend: CC-PVTZ-JKFIT
  @DF-UKS Final Energy:   -75.64253039532836
    Total Energy =                        -75.6425303953283645
 Dipole X            :          0.0000000            0.0000000            0.0000000
 Dipole Y            :          0.0000000            0.0000000            0.0000000
 Dipole Z            :         -0.0184127            0.6260097            0.6075970
 Magnitude           :                                                    0.6075970
    Molecular point group: c2v

    Geometry (in Angstrom), charge = 0, multiplicity = 2:

       Center              X                  Y                   Z               Mass
    ------------   -----------------  -----------------  -----------------  -----------------
         O            0.000000000000     0.000000000000    -0.042088883044    15.994914619570
         H            0.000000000000     0.000000000000     0.667981116956     1.007825032230

  Charge       = 0
  Multiplicity = 2
  Basis Set: CC-PVTZ
    Blend: CC-PVTZ
  Basis Set: (CC-PVTZ AUX)
    Blend: CC-PVTZ-JKFIT

    Orbital Energies [Eh]
    ---------------------

    Alpha Occupied:

       1A1   -19.175164     2A1    -1.122534     3A1    -0.516899
       1B1    -0.433216     1B2    -0.360090

    Alpha Virtual:

       4A1     0.060545     5A1     0.477510     2B1     0.519736
       2B2     0.553274     6A1     0.559658     3B1     0.736731
       3B2     0.757723     7A1     0.808236     8A1     1.410087
       1A2     1.410970     9A1     1.609363     4B1     1.809928
       4B2     1.847313    10A1     1.908166    11A1     2.671835
       2A2     3.314260    12A1     3.314382     5B1     3.362513
       5B2     3.391107     6B1     3.609480     6B2     3.663931
      13A1     3.914492     7B1     4.327720     7B2     4.358531
      14A1     4.554019     8B1     5.054351     8B2     5.054621
      15A1     5.603025     3A2     5.745994    16A1     5.748466
       4A2     6.108178    17A1     6.109761     9B1     6.175684
       9B2     6.228757    18A1     7.326422    19A1     7.566514
      10B1     7.812128    10B2     7.859824    20A1    13.344780

    Beta Occupied:

       1A1   -19.150264     2A1    -1.058038     3A1    -0.485287
       1B2    -0.334564

    Beta Virtual:

       1B1    -0.185341     4A1     0.065241     5A1     0.484127
       2B2     0.562670     6A1     0.568968     2B1     0.585589
       3B2     0.759555     3B1     0.763887     7A1     0.830961
       1A2     1.463694     8A1     1.469295     9A1     1.627886
       4B2     1.852920     4B1     1.857062    10A1     1.930028
      11A1     2.680814     2A2     3.330181    12A1     3.331314
       5B2     3.393931     5B1     3.400915     6B2     3.680921
       6B1     3.706003    13A1     3.926340     7B2     4.361367
       7B1     4.362613    14A1     4.585467     8B2     5.124726
       8B1     5.127652    15A1     5.642916     3A2     5.789044
      16A1     5.793630     4A2     6.200272    17A1     6.214936
       9B2     6.238106     9B1     6.247329    18A1     7.349065
      19A1     7.583122    10B2     7.868673    10B1     7.878556
      20A1    13.373295

    Final Occupation by Irrep:
             A1    A2    B1    B2
    DOCC [     3,    0,    0,    1 ]
    SOCC [     0,    0,    1,    0 ]
    NA   [     3,    0,    1,    1 ]
    NB   [     3,    0,    0,    1 ]

  @DF-UKS Final Energy:   -75.64253039642882

   => Energetics <=

    Nuclear Repulsion Energy =              5.9619723201374510
    One-Electron Energy =                -115.3136716771999772
    Two-Electron Energy =                  41.0310600919351955
    DFT Exchange-Correlation Energy =      -7.3218911313015003
    Empirical Dispersion Energy =           0.0000000000000000
    VV10 Nonlocal Energy =                  0.0000000000000000
    Total Energy =                        -75.6425303964288389

  UHF NO Occupations:
  HONO-2 :    1 B2 1.9998577
  HONO-1 :    3 A1 1.9993753
  HONO-0 :    1 B1 1.0000000
  LUNO+0 :    4 A1 0.0006247
  LUNO+1 :    2 B2 0.0001423
  LUNO+2 :    5 A1 0.0001002
  LUNO+3 :    6 A1 0.0000006

Computation Completed

Properties will be evaluated at   0.000000,   0.000000,   0.000000 [a0]

Properties computed using the B3LYP density matrix

 Multipole Moments:

 ------------------------------------------------------------------------------------
     Multipole            Electronic (a.u.)      Nuclear  (a.u.)        Total (a.u.)
 ------------------------------------------------------------------------------------

 L = 1.  Multiply by 2.5417464519 to convert [e a0] to [Debye]
 Dipole X            :          0.0000000            0.0000000            0.0000000
 Dipole Y            :          0.0000000            0.0000000            0.0000000
 Dipole Z            :         -0.0184127            0.6260097            0.6075970
 Magnitude           :                                                    0.6075970

 L = 2.  Multiply by 1.3450342976 to convert [e a0^2] to [Debye ang]
 Quadrupole XX       :         -3.8040967            0.0000000           -3.8040967
 Quadrupole XY       :          0.0000000            0.0000000            0.0000000
 Quadrupole XZ       :          0.0000000            0.0000000            0.0000000
 Quadrupole YY       :         -4.6805759            0.0000000           -4.6805759
 Quadrupole YZ       :          0.0000000            0.0000000            0.0000000
 Quadrupole ZZ       :         -5.2190237            1.6440131           -3.5750105
 Traceless XX        :          0.7638020           -0.5480044            0.2157977
 Traceless YY        :         -0.1126771           -0.5480044           -0.6606815
 Traceless ZZ        :         -0.6511249            1.0960088            0.4448839

 ------------------------------------------------------------------------------------
  ==> Computing MBIS Charges <==

  Electron Count from Grid (Expected Number):  9.00000 ( 9.00000)
  Difference:  0.00000

  MBIS Charges: (a.u.)
   Center  Symbol  Z      Pop.       Charge
      1       O    8    8.434097   -0.434097
      2       H    1    0.565903    0.434097

  MBIS Dipoles: [e a0]
   Center  Symbol  Z        X           Y           Z
      1       O    8   -0.000000    0.000000    0.005121
      2       H    1   -0.000000    0.000000    0.019988

  MBIS Quadrupoles: [e a0^2]
   Center  Symbol  Z      XX        XY        XZ        YY        YZ        ZZ
      1       O    8   -3.6454   -0.0000    0.0000   -4.5006   -0.0000   -4.1452
      2       H    1   -0.1587   -0.0000    0.0000   -0.1799    0.0000   -0.1685

  MBIS Octupoles: [e a0^3]
   Center  Symbol  Z      XXX       XXY       XXZ       XYY       XYZ       XZZ       YYY       YYZ       YZZ       ZZZ
      1       O    8   -0.0000   -0.0000    0.0815   -0.0000    0.0000    0.0000   -0.0000    0.0318    0.0000   -0.0412
      2       H    1    0.0000    0.0000    0.0005    0.0000    0.0000    0.0000    0.0000    0.0040    0.0000    0.0040

  MBIS Radial Moments:
   Center  Symbol  Z      [a0^2]      [a0^3]      [a0^4]
      1       O    8   12.291172   23.361225   53.030271
      2       H    1    0.507104    0.690274    1.129322

  MBIS Valence Widths: [a0]
   Center  Symbol  Z     Width
      1       O    8    0.389084
      2       H    1    0.274473

*** tstop() called on Mac.lan at Sun Aug 10 17:10:53 2025
Module time:
	user time   =       2.74 seconds =       0.05 minutes
	system time =       2.82 seconds =       0.05 minutes
	total time  =          1 seconds =       0.02 minutes
Total time:
	user time   =      10.91 seconds =       0.18 minutes
	system time =       5.03 seconds =       0.08 minutes
	total time  =          2 seconds =       0.03 minutes

    Psi4 stopped on: Sunday, 10 August 2025 05:10PM
    Psi4 wall time for execution: 0:00:01.56

*** Psi4 exiting successfully. Buy a developer a beer!
