                               Psi4 1.9.1 release

  ==> Input File <==

--------------------------------------------------------------------------
molecule {
0 2
O           0.000000           0.000000           0.000000
N           0.000000           0.000000           1.487399
}

set {
basis              cc-pvtz
reference          uks
maxiter            500
DAMPING_PERCENTAGE 1
E_CONVERGENCE      1.0E-8
D_CONVERGENCE      1.0E-8
DIIS_MAX_VECS      400
MBIS_MAXITER       8000
guess              read
}

E, wfn = energy('b3lyp', restart_file='last_wfn', return_wfn=True)
properties('b3lyp','MBIS_CHARGES', wfn=wfn)
wfn.to_file('last_wfn')
--------------------------------------------------------------------------

    Molecular point group: c2v
  Charge       = 0
  Multiplicity = 2
  Basis Set: CC-PVTZ
    Blend: CC-PVTZ
  Basis Set: (CC-PVTZ AUX)
    Blend: CC-PVTZ-JKFIT
  @DF-UKS Final Energy:  -129.83373594236787
    Total Energy =                       -129.8337359423678663
 Dipole X            :          0.0000000            0.0000000            0.0000000
 Dipole Y            :          0.0000000            0.0000000            0.0000000
 Dipole Z            :          0.2364179           -0.0056397            0.2307782
 Magnitude           :                                                    0.2307782
    Molecular point group: c2v

    Geometry (in Angstrom), charge = 0, multiplicity = 2:

       Center              X                  Y                   Z               Mass
    ------------   -----------------  -----------------  -----------------  -----------------
         O            0.000000000000     0.000000000000    -0.694318493556    15.994914619570
         N            0.000000000000     0.000000000000     0.793080506444    14.003074004430

  Charge       = 0
  Multiplicity = 2
  Basis Set: CC-PVTZ
    Blend: CC-PVTZ
  Basis Set: (CC-PVTZ AUX)
    Blend: CC-PVTZ-JKFIT

    Orbital Energies [Eh]
    ---------------------

    Alpha Occupied:

       1A1   -19.260648     2A1   -14.513735     3A1    -1.046658
       4A1    -0.758464     5A1    -0.453707     1B1    -0.449673
       1B2    -0.413780     2B1    -0.307106

    Alpha Virtual:

       2B2    -0.194162     6A1     0.016096     7A1     0.396658
       3B1     0.416107     3B2     0.418624     8A1     0.481799
       9A1     0.572636     4B1     0.599900     4B2     0.615184
       1A2     0.939481    10A1     0.940186     5B2     0.986186
       5B1     0.989726    11A1     1.119049     2A2     1.472549
      12A1     1.472637    13A1     1.477472     6B1     1.806683
       6B2     1.809745    14A1     2.011402     7B1     2.726083
       7B2     2.732239    15A1     2.999941     8B1     3.449861
       8B2     3.468697    16A1     3.624053     3A2     3.757192
      17A1     3.758016     9B1     3.771331     9B2     3.771429
      10B1     3.928899    10B2     3.931150    18A1     4.238858
       4A2     4.286650    19A1     4.288429    11B1     4.488883
      11B2     4.490698    20A1     4.880186    12B1     5.076242
      12B2     5.076927    21A1     5.153340     5A2     5.158969
      22A1     5.161637    13B1     5.589700    13B2     5.594324
      23A1     6.128474     6A2     6.149997    24A1     6.157126
      14B1     6.498815    14B2     6.513873    25A1     7.349378
      26A1     8.323327

    Beta Occupied:

       1A1   -19.268841     2A1   -14.483876     3A1    -1.048772
       4A1    -0.697970     5A1    -0.440432     1B2    -0.437211
       1B1    -0.386203

    Beta Virtual:

       2B2    -0.162623     2B1    -0.133208     6A1     0.035633
       7A1     0.405243     3B2     0.451804     3B1     0.467100
       8A1     0.503897     9A1     0.578751     4B2     0.588540
       4B1     0.613331     1A2     0.996275    10A1     0.996338
       5B2     1.000945     5B1     1.020075    11A1     1.114549
      12A1     1.462632     2A2     1.463035    13A1     1.498733
       6B2     1.799208     6B1     1.826103    14A1     2.011246
       7B2     2.796045     7B1     2.818663    15A1     3.015302
       8B2     3.433741     8B1     3.475044    16A1     3.652584
       3A2     3.813281    17A1     3.813753     9B2     3.859558
       9B1     3.859642    10B2     3.938285    10B1     3.967604
      18A1     4.251121     4A2     4.406132    19A1     4.406137
      11B2     4.539677    11B1     4.562409    20A1     4.928620
      12B2     5.055185    12B1     5.055233    21A1     5.139453
       5A2     5.147145    22A1     5.177865    13B2     5.567159
      13B1     5.602826    23A1     6.110051     6A2     6.124971
      24A1     6.138066    14B2     6.469583    14B1     6.512530
      25A1     7.346816    26A1     8.319043

    Final Occupation by Irrep:
             A1    A2    B1    B2
    DOCC [     5,    0,    1,    1 ]
    SOCC [     0,    0,    1,    0 ]
    NA   [     5,    0,    2,    1 ]
    NB   [     5,    0,    1,    1 ]

  @DF-UKS Final Energy:  -129.83373593949688

   => Energetics <=

    Nuclear Repulsion Energy =             19.9233183547387078
    One-Electron Energy =                -216.7252373956249585
    Two-Electron Energy =                  79.2300913495621160
    DFT Exchange-Correlation Energy =     -12.2619082481727517
    Empirical Dispersion Energy =           0.0000000000000000
    VV10 Nonlocal Energy =                  0.0000000000000000
    Total Energy =                       -129.8337359394968757

  UHF NO Occupations:
  HONO-2 :    5 A1 1.9978821
  HONO-1 :    1 B2 1.8513656
  HONO-0 :    2 B1 1.0000000
  LUNO+0 :    2 B2 0.1486344
  LUNO+1 :    6 A1 0.0021179
  LUNO+2 :    3 B1 0.0008037
  LUNO+3 :    7 A1 0.0004839

Computation Completed

Properties will be evaluated at   0.000000,   0.000000,   0.000000 [a0]

Properties computed using the B3LYP density matrix

 Multipole Moments:

 ------------------------------------------------------------------------------------
     Multipole            Electronic (a.u.)      Nuclear  (a.u.)        Total (a.u.)
 ------------------------------------------------------------------------------------

 L = 1.  Multiply by 2.5417464519 to convert [e a0] to [Debye]
 Dipole X            :          0.0000000            0.0000000            0.0000000
 Dipole Y            :          0.0000000            0.0000000            0.0000000
 Dipole Z            :          0.2364186           -0.0056397            0.2307789
 Magnitude           :                                                    0.2307789

 L = 2.  Multiply by 1.3450342976 to convert [e a0^2] to [Debye ang]
 Quadrupole XX       :         -8.2373581            0.0000000           -8.2373581
 Quadrupole XY       :          0.0000000            0.0000000            0.0000000
 Quadrupole XZ       :          0.0000000            0.0000000            0.0000000
 Quadrupole YY       :         -7.4809939            0.0000000           -7.4809939
 Quadrupole YZ       :          0.0000000            0.0000000            0.0000000
 Quadrupole ZZ       :        -37.5464253           29.4950749           -8.0513504
 Traceless XX        :          9.5175676           -9.8316916           -0.3141240
 Traceless YY        :         10.2739319           -9.8316916            0.4422403
 Traceless ZZ        :        -19.7914995           19.6633833           -0.1281162

 ------------------------------------------------------------------------------------
  ==> Computing MBIS Charges <==

  Electron Count from Grid (Expected Number): 15.00000 (15.00000)
  Difference: -0.00000

  MBIS Charges: (a.u.)
   Center  Symbol  Z      Pop.       Charge
      1       O    8    8.123119   -0.123119
      2       N    7    6.876880    0.123120

  MBIS Dipoles: [e a0]
   Center  Symbol  Z        X           Y           Z
      1       O    8   -0.000000    0.000000   -0.027134
      2       N    7   -0.000000   -0.000000   -0.088151

  MBIS Quadrupoles: [e a0^2]
   Center  Symbol  Z      XX        XY        XZ        YY        YZ        ZZ
      1       O    8   -4.1295    0.0000    0.0000   -3.7269   -0.0000   -3.8783
      2       N    7   -4.1079   -0.0000    0.0000   -3.7541   -0.0000   -4.0446

  MBIS Octupoles: [e a0^3]
   Center  Symbol  Z      XXX       XXY       XXZ       XYY       XYZ       XZZ       YYY       YYZ       YZZ       ZZZ
      1       O    8   -0.0000   -0.0000    0.0158   -0.0000   -0.0000   -0.0000   -0.0000   -0.0749    0.0000   -0.2995
      2       N    7   -0.0000    0.0000   -0.0251   -0.0000   -0.0000   -0.0000   -0.0000    0.0533   -0.0000    0.2414

  MBIS Radial Moments:
   Center  Symbol  Z      [a0^2]      [a0^3]      [a0^4]
      1       O    8   11.734709   22.266526   50.576669
      2       N    7   11.906560   25.024699   62.718719

  MBIS Valence Widths: [a0]
   Center  Symbol  Z     Width
      1       O    8    0.389923
      2       N    7    0.438913

*** tstop() called on Mac.lan at Sun Aug 10 17:21:16 2025
Module time:
	user time   =       3.78 seconds =       0.06 minutes
	system time =       1.83 seconds =       0.03 minutes
	total time  =          0 seconds =       0.00 minutes
Total time:
	user time   =      19.50 seconds =       0.33 minutes
	system time =       4.10 seconds =       0.07 minutes
	total time  =          2 seconds =       0.03 minutes

    Psi4 stopped on: Sunday, 10 August 2025 05:21PM
    Psi4 wall time for execution: 0:00:02.29

*** Psi4 exiting successfully. Buy a developer a beer!
