                               Psi4 1.9.1 release

  ==> Input File <==

--------------------------------------------------------------------------
molecule {
0 2
N           0.000000           0.000000           0.000000
C           0.000000           0.000000           0.911242
}

set {
basis              cc-pvtz
reference          uks
maxiter            500
DAMPING_PERCENTAGE 1
E_CONVERGENCE      1.0E-8
D_CONVERGENCE      1.0E-8
DIIS_MAX_VECS      400
MBIS_MAXITER       8000
guess              read
}

E, wfn = energy('b3lyp', restart_file='last_wfn', return_wfn=True)
properties('b3lyp','MBIS_CHARGES', wfn=wfn)
wfn.to_file('last_wfn')
--------------------------------------------------------------------------

    Molecular point group: c2v
  Charge       = 0
  Multiplicity = 2
  Basis Set: CC-PVTZ
    Blend: CC-PVTZ
  Basis Set: (CC-PVTZ AUX)
    Blend: CC-PVTZ-JKFIT
  @DF-UKS Final Energy:   -92.51194541036161
    Total Energy =                        -92.5119454103616050
 Dipole X            :          0.0000000            0.0000000            0.0000000
 Dipole Y            :          0.0000000            0.0000000            0.0000000
 Dipole Z            :          0.7422286            0.0012214            0.7434501
 Magnitude           :                                                    0.7434501
    Molecular point group: c2v

    Geometry (in Angstrom), charge = 0, multiplicity = 2:

       Center              X                  Y                   Z               Mass
    ------------   -----------------  -----------------  -----------------  -----------------
         N            0.000000000000     0.000000000000    -0.420523511879    14.003074004430
         C            0.000000000000     0.000000000000     0.490718488121    12.000000000000

  Charge       = 0
  Multiplicity = 2
  Basis Set: CC-PVTZ
    Blend: CC-PVTZ
  Basis Set: (CC-PVTZ AUX)
    Blend: CC-PVTZ-JKFIT

    Orbital Energies [Eh]
    ---------------------

    Alpha Occupied:

       1A1   -14.296953     2A1   -10.225437     3A1    -1.032161
       1B2    -0.464292     1B1    -0.464292     4A1    -0.460813
       5A1    -0.387009

    Alpha Virtual:

       2B2     0.084676     2B1     0.084676     6A1     0.177582
       7A1     0.246027     3B1     0.275579     3B2     0.275579
       8A1     0.456451     4B1     0.537251     4B2     0.537251
       9A1     0.615884     1A2     0.615884    10A1     0.794330
       5B2     0.924817     5B1     0.924817    11A1     1.005136
      12A1     1.242412     2A2     1.242412    13A1     1.535301
       6B2     1.574590     6B1     1.574590     7B2     1.885416
       7B1     1.885416    14A1     2.054110    15A1     2.356412
       8B2     2.599667     8B1     2.599667    16A1     2.802436
       3A2     2.802437    17A1     2.822470     9B2     2.860473
       9B1     2.860473     4A2     2.933871    18A1     2.933871
      10B2     3.206723    10B1     3.206723    19A1     3.279253
      11B2     3.587157    11B1     3.587157    12B2     4.054553
      12B1     4.054553    20A1     4.539766    21A1     4.550000
       5A2     4.550002    22A1     4.975959     6A2     4.975959
      13B2     4.989711    13B1     4.989711    23A1     5.462079
      24A1     5.785127    14B2     6.217758    14B1     6.217758
      25A1     7.635811    26A1    16.483881

    Beta Occupied:

       1A1   -14.294699     2A1   -10.206434     3A1    -1.014047
       1B2    -0.452944     1B1    -0.452944     4A1    -0.382976

    Beta Virtual:

       5A1    -0.239986     2B2     0.106896     2B1     0.106896
       6A1     0.184446     3B1     0.289021     3B2     0.289021
       7A1     0.292140     8A1     0.468303     4B1     0.545111
       4B2     0.545111     9A1     0.629522     1A2     0.629522
      10A1     0.841642     5B2     0.953061     5B1     0.953061
      11A1     1.012598    12A1     1.245290     2A2     1.245290
      13A1     1.582770     6B2     1.583920     6B1     1.583920
       7B2     1.907163     7B1     1.907163    14A1     2.080873
      15A1     2.415349     8B1     2.619846     8B2     2.619846
      16A1     2.813753     3A2     2.813754    17A1     2.867157
       9B2     2.946739     9B1     2.946739     4A2     2.996223
      18A1     2.996224    10B2     3.211741    10B1     3.211741
      19A1     3.362014    11B2     3.620326    11B1     3.620326
      12B2     4.052272    12B1     4.052272    20A1     4.544356
       5A2     4.544357    21A1     4.560790    22A1     4.985173
       6A2     4.985173    13B2     4.999709    13B1     4.999709
      23A1     5.479333    24A1     5.819921    14B2     6.246148
      14B1     6.246148    25A1     7.649176    26A1    16.511943

    Final Occupation by Irrep:
             A1    A2    B1    B2
    DOCC [     4,    0,    1,    1 ]
    SOCC [     1,    0,    0,    0 ]
    NA   [     5,    0,    1,    1 ]
    NB   [     4,    0,    1,    1 ]

  @DF-UKS Final Energy:   -92.51194541008391

   => Energetics <=

    Nuclear Repulsion Energy =             24.3902748645694558
    One-Electron Energy =                -172.3827451875002055
    Two-Electron Energy =                  65.6116873432463876
    DFT Exchange-Correlation Energy =     -10.1311624303995416
    Empirical Dispersion Energy =           0.0000000000000000
    VV10 Nonlocal Energy =                  0.0000000000000000
    Total Energy =                        -92.5119454100839107

  UHF NO Occupations:
  HONO-2 :    1 B1 1.9989037
  HONO-1 :    1 B2 1.9989037
  HONO-0 :    5 A1 1.0000000
  LUNO+0 :    2 B2 0.0010963
  LUNO+1 :    2 B1 0.0010963
  LUNO+2 :    6 A1 0.0003616
  LUNO+3 :    7 A1 0.0000393

Computation Completed

Properties will be evaluated at   0.000000,   0.000000,   0.000000 [a0]

Properties computed using the B3LYP density matrix

 Multipole Moments:

 ------------------------------------------------------------------------------------
     Multipole            Electronic (a.u.)      Nuclear  (a.u.)        Total (a.u.)
 ------------------------------------------------------------------------------------

 L = 1.  Multiply by 2.5417464519 to convert [e a0] to [Debye]
 Dipole X            :          0.0000000            0.0000000            0.0000000
 Dipole Y            :          0.0000000            0.0000000            0.0000000
 Dipole Z            :          0.7422286            0.0012214            0.7434501
 Magnitude           :                                                    0.7434501

 L = 2.  Multiply by 1.3450342976 to convert [e a0^2] to [Debye ang]
 Quadrupole XX       :         -7.3786060            0.0000000           -7.3786060
 Quadrupole XY       :          0.0000000            0.0000000            0.0000000
 Quadrupole XZ       :          0.0000000            0.0000000            0.0000000
 Quadrupole YY       :         -7.3786060            0.0000000           -7.3786060
 Quadrupole YZ       :          0.0000000            0.0000000            0.0000000
 Quadrupole ZZ       :        -17.3102596            9.5801241           -7.7301355
 Traceless XX        :          3.3105512           -3.1933747            0.1171765
 Traceless YY        :          3.3105512           -3.1933747            0.1171765
 Traceless ZZ        :         -6.6211024            6.3867494           -0.2343530

 ------------------------------------------------------------------------------------
  ==> Computing MBIS Charges <==

  Electron Count from Grid (Expected Number): 13.00000 (13.00000)
  Difference: -0.00000

  MBIS Charges: (a.u.)
   Center  Symbol  Z      Pop.       Charge
      1       N    7    7.430058   -0.430058
      2       C    6    5.569942    0.430058

  MBIS Dipoles: [e a0]
   Center  Symbol  Z        X           Y           Z
      1       N    7    0.000000   -0.000000   -0.095206
      2       C    6   -0.000000    0.000000    0.098097

  MBIS Quadrupoles: [e a0^2]
   Center  Symbol  Z      XX        XY        XZ        YY        YZ        ZZ
      1       N    7   -4.1079    0.0000   -0.0000   -4.1079    0.0000   -4.6447
      2       C    6   -3.2707    0.0000    0.0000   -3.2707    0.0000   -3.5169

  MBIS Octupoles: [e a0^3]
   Center  Symbol  Z      XXX       XXY       XXZ       XYY       XYZ       XZZ       YYY       YYZ       YZZ       ZZZ
      1       N    7   -0.0000   -0.0000   -0.0432   -0.0000    0.0000   -0.0000   -0.0000   -0.0432    0.0000    0.2617
      2       C    6   -0.0000   -0.0000   -0.0691   -0.0000    0.0000   -0.0000    0.0000   -0.0691    0.0000   -0.2695

  MBIS Radial Moments:
   Center  Symbol  Z      [a0^2]      [a0^3]      [a0^4]
      1       N    7   12.860497   26.901924   67.563781
      2       C    6   10.058336   22.530095   60.794412

  MBIS Valence Widths: [a0]
   Center  Symbol  Z     Width
      1       N    7    0.431432
      2       C    6    0.462989

*** tstop() called on Mac.lan at Sun Aug 10 17:13:13 2025
Module time:
	user time   =       3.96 seconds =       0.07 minutes
	system time =       2.55 seconds =       0.04 minutes
	total time  =          1 seconds =       0.02 minutes
Total time:
	user time   =      19.78 seconds =       0.33 minutes
	system time =       4.91 seconds =       0.08 minutes
	total time  =          2 seconds =       0.03 minutes

    Psi4 stopped on: Sunday, 10 August 2025 05:13PM
    Psi4 wall time for execution: 0:00:02.39

*** Psi4 exiting successfully. Buy a developer a beer!
