                               Psi4 1.9.1 release

  ==> Input File <==

--------------------------------------------------------------------------
molecule {
0 3
C           0.000000           0.000000           0.000000
C           0.000000           0.000000           1.426676
}

set {
basis              cc-pvtz
reference          uks
maxiter            500
DAMPING_PERCENTAGE 1
E_CONVERGENCE      1.0E-8
D_CONVERGENCE      1.0E-8
DIIS_MAX_VECS      400
MBIS_MAXITER       8000
guess              read
}

E, wfn = energy('b3lyp', restart_file='last_wfn', return_wfn=True)
properties('b3lyp','MBIS_CHARGES', wfn=wfn)
wfn.to_file('last_wfn')
--------------------------------------------------------------------------

    Molecular point group: d2h
  Charge       = 0
  Multiplicity = 3
  Basis Set: CC-PVTZ
    Blend: CC-PVTZ
  Basis Set: (CC-PVTZ AUX)
    Blend: CC-PVTZ-JKFIT
  @DF-UKS Final Energy:   -75.92993313470140
    Total Energy =                        -75.9299331347014004
 Dipole X            :          0.0000000            0.0000000            0.0000000
 Dipole Y            :          0.0000000            0.0000000            0.0000000
 Dipole Z            :          0.0000000            0.0000000            0.0000000
 Magnitude           :                                                    0.0000000
    Molecular point group: d2h

    Geometry (in Angstrom), charge = 0, multiplicity = 3:

       Center              X                  Y                   Z               Mass
    ------------   -----------------  -----------------  -----------------  -----------------
         C            0.000000000000     0.000000000000    -0.713338000000    12.000000000000
         C            0.000000000000     0.000000000000     0.713338000000    12.000000000000

  Charge       = 0
  Multiplicity = 3
  Basis Set: CC-PVTZ
    Blend: CC-PVTZ
  Basis Set: (CC-PVTZ AUX)
    Blend: CC-PVTZ-JKFIT

    Orbital Energies [Eh]
    ---------------------

    Alpha Occupied:

       1Ag   -10.311923     1B1u  -10.311352     2Ag    -0.791597
       2B1u   -0.474076     3Ag    -0.357240     1B3u   -0.351679
       1B2u   -0.318838

    Alpha Virtual:

       1B2g   -0.082018     1B3g   -0.054512     3B1u    0.165948
       2B3u    0.263311     4Ag     0.274569     2B2u    0.278357
       5Ag     0.322319     2B2g    0.348575     2B3g    0.361750
       4B1u    0.371780     1B1g    0.549811     6Ag     0.550458
       5B1u    0.600292     3B3u    0.666874     3B2u    0.690530
       1Au     0.815032     6B1u    0.815371     3B2g    1.096253
       3B3g    1.112397     7Ag     1.126866     7B1u    1.173267
       4B3u    1.879214     4B2u    1.903690     8Ag     1.974616
       4B2g    2.062752     4B3g    2.089773     2B1g    2.366302
       9Ag     2.366838     5B3u    2.375443     5B2u    2.403220
       8B1u    2.407329     6B3u    2.517365     6B2u    2.517502
      10Ag     2.582851     5B2g    2.769619     5B3g    2.769721
       3B1g    2.879475    11Ag     2.879782     9B1u    2.962521
       2Au     2.963052    10B1u    3.010474     6B2g    3.019644
       6B3g    3.040545     7B3u    3.250839     3Au     3.261659
      11B1u    3.262556     7B2u    3.275577    12B1u    3.657765
      12Ag     3.746371    13Ag     4.079892     7B2g    4.146310
       7B3g    4.172596    13B1u    9.010222

    Beta Occupied:

       1Ag   -10.296072     1B1u  -10.295723     2Ag    -0.726038
       2B1u   -0.387139     1B2u   -0.301299

    Beta Virtual:

       1B3u   -0.208974     3Ag    -0.207371     1B3g   -0.033404
       1B2g   -0.005652     3B1u    0.180997     2B2u    0.284169
       2B3u    0.294201     4Ag     0.298702     5Ag     0.355529
       2B3g    0.368452     2B2g    0.377668     4B1u    0.440187
       1B1g    0.576660     6Ag     0.579111     5B1u    0.617731
       3B2u    0.718260     3B3u    0.724448     1Au     0.838873
       6B1u    0.840868     3B3g    1.134264     3B2g    1.137194
       7Ag     1.168141     7B1u    1.213551     4B2u    1.916923
       4B3u    1.930192     8Ag     2.023413     4B3g    2.101533
       4B2g    2.112002     2B1g    2.407689     9Ag     2.410154
       5B2u    2.433728     5B3u    2.445512     8B1u    2.454663
       6B2u    2.550395     6B3u    2.551258    10Ag     2.650936
       5B3g    2.802032     5B2g    2.802908     3B1g    2.922540
      11Ag     2.927143     2Au     3.002439     9B1u    3.006923
      10B1u    3.068727     6B3g    3.087350     6B2g    3.098523
       3Au     3.304467    11B1u    3.307039     7B2u    3.320068
       7B3u    3.328601    12B1u    3.717481    12Ag     3.789208
      13Ag     4.125268     7B3g    4.202952     7B2g    4.211483
      13B1u    9.039224

    Final Occupation by Irrep:
             Ag   B1g   B2g   B3g    Au   B1u   B2u   B3u
    DOCC [     2,    0,    0,    0,    0,    2,    1,    0 ]
    SOCC [     1,    0,    0,    0,    0,    0,    0,    1 ]
    NA   [     3,    0,    0,    0,    0,    2,    1,    1 ]
    NB   [     2,    0,    0,    0,    0,    2,    1,    0 ]

  @DF-UKS Final Energy:   -75.92993313465739

   => Energetics <=

    Nuclear Repulsion Energy =             13.3529824459933391
    One-Electron Energy =                -127.5125672257683505
    Two-Electron Energy =                  46.7283114361589398
    DFT Exchange-Correlation Energy =      -8.4986597910413035
    Empirical Dispersion Energy =           0.0000000000000000
    VV10 Nonlocal Energy =                  0.0000000000000000
    Total Energy =                        -75.9299331346573894

  UHF NO Occupations:
  HONO-2 :    2B1u 1.9982928
  HONO-1 :    1B3u 1.0000000
  HONO-0 :    3 Ag 1.0000000
  LUNO+0 :    3B1u 0.0017072
  LUNO+1 :    4 Ag 0.0003894
  LUNO+2 :    2B2u 0.0001661
  LUNO+3 :    4B1u 0.0000006

Computation Completed

Properties will be evaluated at   0.000000,   0.000000,   0.000000 [a0]

Properties computed using the B3LYP density matrix

 Multipole Moments:

 ------------------------------------------------------------------------------------
     Multipole            Electronic (a.u.)      Nuclear  (a.u.)        Total (a.u.)
 ------------------------------------------------------------------------------------

 L = 1.  Multiply by 2.5417464519 to convert [e a0] to [Debye]
 Dipole X            :          0.0000000            0.0000000            0.0000000
 Dipole Y            :          0.0000000            0.0000000            0.0000000
 Dipole Z            :          0.0000000            0.0000000            0.0000000
 Magnitude           :                                                    0.0000000

 L = 2.  Multiply by 1.3450342976 to convert [e a0^2] to [Debye ang]
 Quadrupole XX       :         -8.1076867            0.0000000           -8.1076867
 Quadrupole XY       :          0.0000000            0.0000000            0.0000000
 Quadrupole XZ       :          0.0000000            0.0000000            0.0000000
 Quadrupole YY       :         -9.6322629            0.0000000           -9.6322629
 Quadrupole YZ       :          0.0000000            0.0000000            0.0000000
 Quadrupole ZZ       :        -30.8151154           21.8056833           -9.0094321
 Traceless XX        :          8.0773350           -7.2685611            0.8087739
 Traceless YY        :          6.5527588           -7.2685611           -0.7158023
 Traceless ZZ        :        -14.6300938           14.5371222           -0.0929716

 ------------------------------------------------------------------------------------
  ==> Computing MBIS Charges <==

  Electron Count from Grid (Expected Number): 12.00000 (12.00000)
  Difference:  0.00000

  MBIS Charges: (a.u.)
   Center  Symbol  Z      Pop.       Charge
      1       C    6    6.000000   -0.000000
      2       C    6    6.000000   -0.000000

  MBIS Dipoles: [e a0]
   Center  Symbol  Z        X           Y           Z
      1       C    6   -0.000000    0.000000   -0.089234
      2       C    6   -0.000000    0.000000    0.089234

  MBIS Quadrupoles: [e a0^2]
   Center  Symbol  Z      XX        XY        XZ        YY        YZ        ZZ
      1       C    6   -4.0538    0.0000   -0.0000   -4.8161   -0.0000   -4.7453
      2       C    6   -4.0538    0.0000    0.0000   -4.8161    0.0000   -4.7453

  MBIS Octupoles: [e a0^3]
   Center  Symbol  Z      XXX       XXY       XXZ       XYY       XYZ       XZZ       YYY       YYZ       YZZ       ZZZ
      1       C    6   -0.0000    0.0000   -0.0520    0.0000   -0.0000   -0.0000    0.0000   -0.2943    0.0000   -0.4172
      2       C    6   -0.0000    0.0000    0.0520    0.0000    0.0000   -0.0000    0.0000    0.2943    0.0000    0.4172

  MBIS Radial Moments:
   Center  Symbol  Z      [a0^2]      [a0^3]      [a0^4]
      1       C    6   13.615266   33.322258   97.223660
      2       C    6   13.615266   33.322258   97.223660

  MBIS Valence Widths: [a0]
   Center  Symbol  Z     Width
      1       C    6    0.516805
      2       C    6    0.516805

*** tstop() called on Mac.lan at Sun Aug 10 17:04:13 2025
Module time:
	user time   =       3.56 seconds =       0.06 minutes
	system time =       2.47 seconds =       0.04 minutes
	total time  =          1 seconds =       0.02 minutes
Total time:
	user time   =      16.56 seconds =       0.28 minutes
	system time =       4.31 seconds =       0.07 minutes
	total time  =          2 seconds =       0.03 minutes

    Psi4 stopped on: Sunday, 10 August 2025 05:04PM
    Psi4 wall time for execution: 0:00:02.03

*** Psi4 exiting successfully. Buy a developer a beer!
