                               Psi4 1.9.1 release

  ==> Input File <==

--------------------------------------------------------------------------
molecule {
0 2
O           0.000000           0.000000           0.000000
H           0.000000           0.000000           0.960683
}

set {
basis              cc-pvtz
reference          uks
maxiter            500
DAMPING_PERCENTAGE 1
E_CONVERGENCE      1.0E-8
D_CONVERGENCE      1.0E-8
DIIS_MAX_VECS      400
MBIS_MAXITER       8000
guess              read
}

E, wfn = energy('b3lyp', restart_file='last_wfn', return_wfn=True)
properties('b3lyp','MBIS_CHARGES', wfn=wfn)
wfn.to_file('last_wfn')
--------------------------------------------------------------------------

    Molecular point group: c2v
  Charge       = 0
  Multiplicity = 2
  Basis Set: CC-PVTZ
    Blend: CC-PVTZ
  Basis Set: (CC-PVTZ AUX)
    Blend: CC-PVTZ-JKFIT
  @DF-UKS Final Energy:   -75.76395954226913
    Total Energy =                        -75.7639595422691201
 Dipole X            :          0.0000000            0.0000000            0.0000000
 Dipole Y            :          0.0000000            0.0000000            0.0000000
 Dipole Z            :         -0.1852656            0.8469543            0.6616887
 Magnitude           :                                                    0.6616887
    Molecular point group: c2v

    Geometry (in Angstrom), charge = 0, multiplicity = 2:

       Center              X                  Y                   Z               Mass
    ------------   -----------------  -----------------  -----------------  -----------------
         O            0.000000000000     0.000000000000    -0.056943786429    15.994914619570
         H            0.000000000000     0.000000000000     0.903739213571     1.007825032230

  Charge       = 0
  Multiplicity = 2
  Basis Set: CC-PVTZ
    Blend: CC-PVTZ
  Basis Set: (CC-PVTZ AUX)
    Blend: CC-PVTZ-JKFIT

    Orbital Energies [Eh]
    ---------------------

    Alpha Occupied:

       1A1   -19.195588     2A1    -1.021481     3A1    -0.479287
       1B1    -0.417523     1B2    -0.344698

    Alpha Virtual:

       4A1     0.031191     5A1     0.374087     6A1     0.514423
       2B1     0.527753     2B2     0.563375     3B1     0.689956
       3B2     0.705827     7A1     0.866929     8A1     1.262982
       1A2     1.418883     9A1     1.419350     4B1     1.734104
       4B2     1.772583    10A1     1.867905    11A1     2.434913
       2A2     3.187489    12A1     3.187650     5B1     3.316308
       5B2     3.353950     6B1     3.595874     6B2     3.624648
      13A1     3.687603     7B1     4.041996     7B2     4.075773
      14A1     4.342743    15A1     4.652619     8B1     5.068364
       8B2     5.068623     3A2     5.353417    16A1     5.354074
      17A1     6.137023     4A2     6.137360     9B1     6.278928
       9B2     6.337769    18A1     6.378755    10B1     6.579504
      10B2     6.623056    19A1     6.992507    20A1    10.248557

    Beta Occupied:

       1A1   -19.170287     2A1    -0.951381     3A1    -0.453520
       1B2    -0.319167

    Beta Virtual:

       1B1    -0.170548     4A1     0.037664     5A1     0.380620
       6A1     0.522263     2B2     0.573815     2B1     0.600794
       3B1     0.704936     3B2     0.704966     7A1     0.895160
       8A1     1.275007     1A2     1.471041     9A1     1.477013
       4B2     1.778659     4B1     1.784096    10A1     1.881953
      11A1     2.442132     2A2     3.193609    12A1     3.194294
       5B2     3.360333     5B1     3.374291     6B2     3.628948
       6B1     3.640378    13A1     3.691634     7B2     4.081478
       7B1     4.086728    14A1     4.366670    15A1     4.681817
       8B2     5.138505     8B1     5.141490     3A2     5.398616
      16A1     5.403644     4A2     6.229103    17A1     6.243468
       9B2     6.352072     9B1     6.374480    18A1     6.403310
      10B2     6.629003    10B1     6.631585    19A1     7.020039
      20A1    10.283295

    Final Occupation by Irrep:
             A1    A2    B1    B2
    DOCC [     3,    0,    0,    1 ]
    SOCC [     0,    0,    1,    0 ]
    NA   [     3,    0,    1,    1 ]
    NB   [     3,    0,    0,    1 ]

  @DF-UKS Final Energy:   -75.76395954231002

   => Energetics <=

    Nuclear Repulsion Energy =              4.4066749233201801
    One-Electron Energy =                -112.8161405631843763
    Two-Electron Energy =                  39.8421226833684514
    DFT Exchange-Correlation Energy =      -7.1966165858142803
    Empirical Dispersion Energy =           0.0000000000000000
    VV10 Nonlocal Energy =                  0.0000000000000000
    Total Energy =                        -75.7639595423100189

  UHF NO Occupations:
  HONO-2 :    2 A1 1.9997550
  HONO-1 :    3 A1 1.9993170
  HONO-0 :    1 B1 1.0000000
  LUNO+0 :    4 A1 0.0006830
  LUNO+1 :    5 A1 0.0002450
  LUNO+2 :    2 B2 0.0001542
  LUNO+3 :    6 A1 0.0000006

Computation Completed

Properties will be evaluated at   0.000000,   0.000000,   0.000000 [a0]

Properties computed using the B3LYP density matrix

 Multipole Moments:

 ------------------------------------------------------------------------------------
     Multipole            Electronic (a.u.)      Nuclear  (a.u.)        Total (a.u.)
 ------------------------------------------------------------------------------------

 L = 1.  Multiply by 2.5417464519 to convert [e a0] to [Debye]
 Dipole X            :          0.0000000            0.0000000            0.0000000
 Dipole Y            :          0.0000000            0.0000000            0.0000000
 Dipole Z            :         -0.1852656            0.8469543            0.6616887
 Magnitude           :                                                    0.6616887

 L = 2.  Multiply by 1.3450342976 to convert [e a0^2] to [Debye ang]
 Quadrupole XX       :         -3.9988873            0.0000000           -3.9988873
 Quadrupole XY       :          0.0000000            0.0000000            0.0000000
 Quadrupole XZ       :          0.0000000            0.0000000            0.0000000
 Quadrupole YY       :         -4.8928307            0.0000000           -4.8928307
 Quadrupole YZ       :          0.0000000            0.0000000            0.0000000
 Quadrupole ZZ       :         -6.2932396            3.0092839           -3.2839557
 Traceless XX        :          1.0627652           -1.0030946            0.0596706
 Traceless YY        :          0.1688218           -1.0030946           -0.8342728
 Traceless ZZ        :         -1.2315871            2.0061893            0.7746022

 ------------------------------------------------------------------------------------
  ==> Computing MBIS Charges <==

  Electron Count from Grid (Expected Number):  9.00000 ( 9.00000)
  Difference: -0.00000

  MBIS Charges: (a.u.)
   Center  Symbol  Z      Pop.       Charge
      1       O    8    8.382271   -0.382271
      2       H    1    0.617729    0.382271

  MBIS Dipoles: [e a0]
   Center  Symbol  Z        X           Y           Z
      1       O    8   -0.000000   -0.000000   -0.062488
      2       H    1    0.000000    0.000000    0.030191

  MBIS Quadrupoles: [e a0^2]
   Center  Symbol  Z      XX        XY        XZ        YY        YZ        ZZ
      1       O    8   -3.7063   -0.0000    0.0000   -4.5632   -0.0000   -4.2085
      2       H    1   -0.2926    0.0000    0.0000   -0.3297    0.0000   -0.3025

  MBIS Octupoles: [e a0^3]
   Center  Symbol  Z      XXX       XXY       XXZ       XYY       XYZ       XZZ       YYY       YYZ       YZZ       ZZZ
      1       O    8   -0.0000   -0.0000   -0.0461    0.0000   -0.0000    0.0000   -0.0000   -0.0648    0.0000   -0.3310
      2       H    1   -0.0000   -0.0000   -0.0048   -0.0000    0.0000    0.0000    0.0000    0.0092    0.0000    0.0176

  MBIS Radial Moments:
   Center  Symbol  Z      [a0^2]      [a0^3]      [a0^4]
      1       O    8   12.477955   23.954941   54.972866
      2       H    1    0.924812    1.626838    3.420958

  MBIS Valence Widths: [a0]
   Center  Symbol  Z     Width
      1       O    8    0.394253
      2       H    1    0.354051

*** tstop() called on Mac.lan at Sun Aug 10 17:10:23 2025
Module time:
	user time   =       2.83 seconds =       0.05 minutes
	system time =       2.64 seconds =       0.04 minutes
	total time  =          0 seconds =       0.00 minutes
Total time:
	user time   =      11.99 seconds =       0.20 minutes
	system time =       5.00 seconds =       0.08 minutes
	total time  =          1 seconds =       0.02 minutes

    Psi4 stopped on: Sunday, 10 August 2025 05:10PM
    Psi4 wall time for execution: 0:00:01.65

*** Psi4 exiting successfully. Buy a developer a beer!
