                               Psi4 1.9.1 release

  ==> Input File <==

--------------------------------------------------------------------------
molecule {
0 1
O           0.000000           0.000000           0.000000
C           0.000000           0.000000           1.213463
}

set {
basis              cc-pvtz
reference          uks
maxiter            500
DAMPING_PERCENTAGE 1
E_CONVERGENCE      1.0E-8
D_CONVERGENCE      1.0E-8
DIIS_MAX_VECS      400
MBIS_MAXITER       8000
guess              read
}

E, wfn = energy('b3lyp', restart_file='last_wfn', return_wfn=True)
properties('b3lyp','MBIS_CHARGES', wfn=wfn)
wfn.to_file('last_wfn')
--------------------------------------------------------------------------

    Molecular point group: c2v
  Charge       = 0
  Multiplicity = 1
  Basis Set: CC-PVTZ
    Blend: CC-PVTZ
  Basis Set: (CC-PVTZ AUX)
    Blend: CC-PVTZ-JKFIT
  @DF-UKS Final Energy:  -113.34307879811047
    Total Energy =                       -113.3430787981104686
 Dipole X            :          0.0000000            0.0000000            0.0000000
 Dipole Y            :          0.0000000            0.0000000            0.0000000
 Dipole Z            :          0.0743279           -0.0024993            0.0718286
 Magnitude           :                                                    0.0718286
    Molecular point group: c2v

    Geometry (in Angstrom), charge = 0, multiplicity = 1:

       Center              X                  Y                   Z               Mass
    ------------   -----------------  -----------------  -----------------  -----------------
         O            0.000000000000     0.000000000000    -0.520150041459    15.994914619570
         C            0.000000000000     0.000000000000     0.693312958541    12.000000000000

  Charge       = 0
  Multiplicity = 1
  Basis Set: CC-PVTZ
    Blend: CC-PVTZ
  Basis Set: (CC-PVTZ AUX)
    Blend: CC-PVTZ-JKFIT

    Orbital Energies [Eh]
    ---------------------

    Alpha Occupied:

       1A1   -19.241984     2A1   -10.323836     3A1    -1.124413
       4A1    -0.581638     1B1    -0.454534     1B2    -0.454534
       5A1    -0.390577

    Alpha Virtual:

       2B2    -0.064338     2B1    -0.064338     6A1     0.153733
       3B1     0.287584     3B2     0.287584     7A1     0.302218
       8A1     0.490837     9A1     0.537964     4B2     0.614902
       4B1     0.614902    10A1     0.633066     1A2     0.633066
       5B1     0.822398     5B2     0.822398    11A1     1.098454
      12A1     1.227091    13A1     1.480960     2A2     1.480960
       6B2     1.809308     6B1     1.809308    14A1     1.959183
       7B2     1.996818     7B1     1.996818    15A1     2.310843
       8B2     2.627876     8B1     2.627876    16A1     2.760705
       3A2     2.760706    17A1     2.914630     4A2     2.914631
       9B2     2.933359     9B1     2.933359    18A1     3.115449
      10B2     3.167407    10B1     3.167407    19A1     3.248273
      11B1     3.956923    11B2     3.956923    20A1     4.150747
      12B1     5.065587    12B2     5.065587    21A1     5.364679
       5A2     5.364679    22A1     5.883507    13B1     5.993550
      13B2     5.993550    23A1     6.202387     6A2     6.202410
      24A1     6.502286    14B2     6.704471    14B1     6.704471
      25A1     6.934772    26A1    10.962291

    Beta Occupied:

       1A1   -19.241984     2A1   -10.323836     3A1    -1.124413
       4A1    -0.581638     1B1    -0.454534     1B2    -0.454534
       5A1    -0.390577

    Beta Virtual:

       2B2    -0.064338     2B1    -0.064338     6A1     0.153733
       3B1     0.287584     3B2     0.287584     7A1     0.302218
       8A1     0.490837     9A1     0.537964     4B2     0.614902
       4B1     0.614902    10A1     0.633066     1A2     0.633066
       5B1     0.822398     5B2     0.822398    11A1     1.098454
      12A1     1.227091    13A1     1.480960     2A2     1.480960
       6B2     1.809308     6B1     1.809308    14A1     1.959183
       7B2     1.996818     7B1     1.996818    15A1     2.310843
       8B2     2.627876     8B1     2.627876    16A1     2.760705
       3A2     2.760706    17A1     2.914630     4A2     2.914631
       9B2     2.933359     9B1     2.933359    18A1     3.115449
      10B2     3.167407    10B1     3.167407    19A1     3.248273
      11B1     3.956923    11B2     3.956923    20A1     4.150747
      12B1     5.065587    12B2     5.065587    21A1     5.364679
       5A2     5.364679    22A1     5.883507    13B1     5.993550
      13B2     5.993550    23A1     6.202387     6A2     6.202410
      24A1     6.502286    14B2     6.704471    14B1     6.704471
      25A1     6.934772    26A1    10.962291

    Final Occupation by Irrep:
             A1    A2    B1    B2
    DOCC [     5,    0,    1,    1 ]
    SOCC [     0,    0,    0,    0 ]
    NA   [     5,    0,    1,    1 ]
    NB   [     5,    0,    1,    1 ]

  @DF-UKS Final Energy:  -113.34307879469713

   => Energetics <=

    Nuclear Repulsion Energy =             20.9322460694392838
    One-Electron Energy =                -195.3726773722457324
    Two-Electron Energy =                  72.2654503294853470
    DFT Exchange-Correlation Energy =     -11.1680978213760316
    Empirical Dispersion Energy =           0.0000000000000000
    VV10 Nonlocal Energy =                  0.0000000000000000
    Total Energy =                       -113.3430787946971350

  UHF NO Occupations:
  HONO-2 :    3 A1 2.0000000
  HONO-1 :    4 A1 2.0000000
  HONO-0 :    5 A1 2.0000000
  LUNO+0 :    6 A1 0.0000000
  LUNO+1 :    7 A1 0.0000000
  LUNO+2 :    8 A1 0.0000000
  LUNO+3 :    9 A1 0.0000000

Computation Completed

Properties will be evaluated at   0.000000,   0.000000,   0.000000 [a0]

Properties computed using the B3LYP density matrix

 Multipole Moments:

 ------------------------------------------------------------------------------------
     Multipole            Electronic (a.u.)      Nuclear  (a.u.)        Total (a.u.)
 ------------------------------------------------------------------------------------

 L = 1.  Multiply by 2.5417464519 to convert [e a0] to [Debye]
 Dipole X            :          0.0000000            0.0000000            0.0000000
 Dipole Y            :          0.0000000            0.0000000            0.0000000
 Dipole Z            :          0.0743279           -0.0024993            0.0718286
 Magnitude           :                                                    0.0718286

 L = 2.  Multiply by 1.3450342976 to convert [e a0^2] to [Debye ang]
 Quadrupole XX       :         -7.7169330            0.0000000           -7.7169330
 Quadrupole XY       :          0.0000000            0.0000000            0.0000000
 Quadrupole XZ       :          0.0000000            0.0000000            0.0000000
 Quadrupole YY       :         -7.7169330            0.0000000           -7.7169330
 Quadrupole YZ       :          0.0000000            0.0000000            0.0000000
 Quadrupole ZZ       :        -27.0898029           18.0286839           -9.0611190
 Traceless XX        :          6.4576233           -6.0095613            0.4480620
 Traceless YY        :          6.4576233           -6.0095613            0.4480620
 Traceless ZZ        :        -12.9152466           12.0191226           -0.8961240

 ------------------------------------------------------------------------------------
  ==> Computing MBIS Charges <==

  Electron Count from Grid (Expected Number): 14.00000 (14.00000)
  Difference:  0.00000

  MBIS Charges: (a.u.)
   Center  Symbol  Z      Pop.       Charge
      1       O    8    8.179587   -0.179587
      2       C    6    5.820414    0.179586

  MBIS Dipoles: [e a0]
   Center  Symbol  Z        X           Y           Z
      1       O    8   -0.000000   -0.000000   -0.068568
      2       C    6    0.000000   -0.000000   -0.271416

  MBIS Quadrupoles: [e a0^2]
   Center  Symbol  Z      XX        XY        XZ        YY        YZ        ZZ
      1       O    8   -3.7541   -0.0000    0.0000   -3.7541    0.0000   -3.9141
      2       C    6   -3.9629   -0.0000    0.0000   -3.9629    0.0000   -4.7053

  MBIS Octupoles: [e a0^3]
   Center  Symbol  Z      XXX       XXY       XXZ       XYY       XYZ       XZZ       YYY       YYZ       YZZ       ZZZ
      1       O    8    0.0000   -0.0000   -0.0151   -0.0000    0.0000   -0.0000    0.0000   -0.0151   -0.0000   -0.1399
      2       C    6    0.0000   -0.0000   -0.1879    0.0000    0.0000    0.0000    0.0000   -0.1879    0.0000   -0.6510

  MBIS Radial Moments:
   Center  Symbol  Z      [a0^2]      [a0^3]      [a0^4]
      1       O    8   11.422296   21.166739   47.004730
      2       C    6   12.631041   30.257652   85.909695

  MBIS Valence Widths: [a0]
   Center  Symbol  Z     Width
      1       O    8    0.383080
      2       C    6    0.508485

*** tstop() called on Mac.lan at Sun Aug 10 17:17:40 2025
Module time:
	user time   =       3.67 seconds =       0.06 minutes
	system time =       2.79 seconds =       0.05 minutes
	total time  =          0 seconds =       0.00 minutes
Total time:
	user time   =      15.44 seconds =       0.26 minutes
	system time =       5.97 seconds =       0.10 minutes
	total time  =          2 seconds =       0.03 minutes

    Psi4 stopped on: Sunday, 10 August 2025 05:17PM
    Psi4 wall time for execution: 0:00:02.09

*** Psi4 exiting successfully. Buy a developer a beer!
