                               Psi4 1.9.1 release

  ==> Input File <==

--------------------------------------------------------------------------
molecule {
0 2
C           0.000000           0.000000           0.000000
H           0.000000           0.000000           0.777417
}

set {
basis              cc-pvtz
reference          uks
maxiter            500
DAMPING_PERCENTAGE 1
E_CONVERGENCE      1.0E-8
D_CONVERGENCE      1.0E-8
DIIS_MAX_VECS      400
MBIS_MAXITER       8000
guess              read
}

E, wfn = energy('b3lyp', restart_file='last_wfn', return_wfn=True)
properties('b3lyp','MBIS_CHARGES', wfn=wfn)
wfn.to_file('last_wfn')
--------------------------------------------------------------------------

    Molecular point group: c2v
  Charge       = 0
  Multiplicity = 2
  Basis Set: CC-PVTZ
    Blend: CC-PVTZ
  Basis Set: (CC-PVTZ AUX)
    Blend: CC-PVTZ-JKFIT
  @DF-UKS Final Energy:   -38.36726849574041
    Total Energy =                        -38.3672684957404186
 Dipole X            :          0.0000000            0.0000000            0.0000000
 Dipole Y            :          0.0000000            0.0000000            0.0000000
 Dipole Z            :          0.0964877            0.6723381            0.7688259
 Magnitude           :                                                    0.7688259
    Molecular point group: c2v

    Geometry (in Angstrom), charge = 0, multiplicity = 2:

       Center              X                  Y                   Z               Mass
    ------------   -----------------  -----------------  -----------------  -----------------
         C            0.000000000000     0.000000000000    -0.060232999071    12.000000000000
         H            0.000000000000     0.000000000000     0.717184000929     1.007825032230

  Charge       = 0
  Multiplicity = 2
  Basis Set: CC-PVTZ
    Blend: CC-PVTZ
  Basis Set: (CC-PVTZ AUX)
    Blend: CC-PVTZ-JKFIT

    Orbital Energies [Eh]
    ---------------------

    Alpha Occupied:

       1A1   -10.243553     2A1    -0.751428     3A1    -0.324851
       1B1    -0.261058

    Alpha Virtual:

       1B2    -0.149536     4A1     0.074670     5A1     0.284640
       2B1     0.291000     2B2     0.309864     6A1     0.380819
       7A1     0.607774     3B1     0.620864     3B2     0.625842
       1A2     0.654130     8A1     0.660290     9A1     1.011597
       4B1     1.091023     4B2     1.091260    10A1     1.862030
       5B1     1.919919    11A1     1.938451     5B2     1.943873
      12A1     2.209277     2A2     2.575223    13A1     2.579164
       6B1     2.643052     6B2     2.645237     7B1     2.714714
       7B2     2.723102     3A2     2.883752    14A1     2.893990
       8B1     3.023237     8B2     3.024918    15A1     3.048694
      16A1     3.823833     4A2     3.975386    17A1     3.978603
       9B2     4.037414     9B1     4.038627    10B1     5.594068
      10B2     5.597255    18A1     5.617402    19A1     6.046858
      20A1    13.104108

    Beta Occupied:

       1A1   -10.229117     2A1    -0.712873     3A1    -0.299227

    Beta Virtual:

       1B2    -0.133326     1B1    -0.087520     4A1     0.077310
       5A1     0.291088     2B2     0.317018     2B1     0.344515
       6A1     0.395945     7A1     0.621462     3B2     0.628788
       3B1     0.656700     1A2     0.697613     8A1     0.698164
       9A1     1.021854     4B2     1.092264     4B1     1.110508
      10A1     1.883432    11A1     1.948082     5B2     1.955724
       5B1     1.998867    12A1     2.238937     2A2     2.610104
      13A1     2.610548     6B2     2.700237     6B1     2.700836
       7B2     2.727291     7B1     2.764672    14A1     2.950749
       3A2     2.953933     8B2     3.028501     8B1     3.061309
      15A1     3.070307    16A1     3.834809     4A2     3.998264
      17A1     3.999525     9B2     4.037540     9B1     4.058216
      10B2     5.599556    10B1     5.629761    18A1     5.630431
      19A1     6.053621    20A1    13.119291

    Final Occupation by Irrep:
             A1    A2    B1    B2
    DOCC [     3,    0,    0,    0 ]
    SOCC [     0,    0,    1,    0 ]
    NA   [     3,    0,    1,    0 ]
    NB   [     3,    0,    0,    0 ]

  @DF-UKS Final Energy:   -38.36726849705006

   => Energetics <=

    Nuclear Repulsion Energy =              4.0841186442025323
    One-Electron Energy =                 -58.7058544310439601
    Two-Electron Energy =                  20.9308101917329417
    DFT Exchange-Correlation Energy =      -4.6763429019415765
    Empirical Dispersion Energy =           0.0000000000000000
    VV10 Nonlocal Energy =                  0.0000000000000000
    Total Energy =                        -38.3672684970500555

  UHF NO Occupations:
  HONO-2 :    2 A1 1.9999077
  HONO-1 :    3 A1 1.9988054
  HONO-0 :    1 B1 1.0000000
  LUNO+0 :    4 A1 0.0011946
  LUNO+1 :    5 A1 0.0000923
  LUNO+2 :    6 A1 0.0000007
  LUNO+3 :    7 A1 0.0000000

Computation Completed

Properties will be evaluated at   0.000000,   0.000000,   0.000000 [a0]

Properties computed using the B3LYP density matrix

 Multipole Moments:

 ------------------------------------------------------------------------------------
     Multipole            Electronic (a.u.)      Nuclear  (a.u.)        Total (a.u.)
 ------------------------------------------------------------------------------------

 L = 1.  Multiply by 2.5417464519 to convert [e a0] to [Debye]
 Dipole X            :          0.0000000            0.0000000            0.0000000
 Dipole Y            :          0.0000000            0.0000000            0.0000000
 Dipole Z            :          0.0964877            0.6723381            0.7688259
 Magnitude           :                                                    0.7688259

 L = 2.  Multiply by 1.3450342976 to convert [e a0^2] to [Debye ang]
 Quadrupole XX       :         -5.4412414            0.0000000           -5.4412414
 Quadrupole XY       :          0.0000000            0.0000000            0.0000000
 Quadrupole XZ       :          0.0000000            0.0000000            0.0000000
 Quadrupole YY       :         -3.9528081            0.0000000           -3.9528081
 Quadrupole YZ       :          0.0000000            0.0000000            0.0000000
 Quadrupole ZZ       :         -7.3250072            1.9145228           -5.4104844
 Traceless XX        :          0.1317775           -0.6381743           -0.5063968
 Traceless YY        :          1.6202108           -0.6381743            0.9820366
 Traceless ZZ        :         -1.7519883            1.2763485           -0.4756398

 ------------------------------------------------------------------------------------
  ==> Computing MBIS Charges <==

  Electron Count from Grid (Expected Number):  7.00000 ( 7.00000)
  Difference:  0.00000

  MBIS Charges: (a.u.)
   Center  Symbol  Z      Pop.       Charge
      1       C    6    6.145907   -0.145907
      2       H    1    0.854093    0.145907

  MBIS Dipoles: [e a0]
   Center  Symbol  Z        X           Y           Z
      1       C    6   -0.000000   -0.000000    0.524604
      2       H    1    0.000000    0.000000    0.029870

  MBIS Quadrupoles: [e a0^2]
   Center  Symbol  Z      XX        XY        XZ        YY        YZ        ZZ
      1       C    6   -5.1319    0.0000    0.0000   -3.6890    0.0000   -5.3470
      2       H    1   -0.3093   -0.0000   -0.0000   -0.2638   -0.0000   -0.2912

  MBIS Octupoles: [e a0^3]
   Center  Symbol  Z      XXX       XXY       XXZ       XYY       XYZ       XZZ       YYY       YYZ       YZZ       ZZZ
      1       C    6   -0.0000    0.0000    0.8502   -0.0000   -0.0000   -0.0000    0.0000    0.9638   -0.0000    2.1566
      2       H    1   -0.0000    0.0000    0.0093    0.0000   -0.0000    0.0000   -0.0000   -0.0032   -0.0000    0.0054

  MBIS Radial Moments:
   Center  Symbol  Z      [a0^2]      [a0^3]      [a0^4]
      1       C    6   14.167866   35.018402   102.845822
      2       H    1    0.864317    1.225645    2.085462

  MBIS Valence Widths: [a0]
   Center  Symbol  Z     Width
      1       C    6    0.517465
      2       H    1    0.294507

*** tstop() called on Mac.lan at Sun Aug 10 17:08:52 2025
Module time:
	user time   =       2.73 seconds =       0.05 minutes
	system time =       2.23 seconds =       0.04 minutes
	total time  =          1 seconds =       0.02 minutes
Total time:
	user time   =      10.15 seconds =       0.17 minutes
	system time =       4.15 seconds =       0.07 minutes
	total time  =          2 seconds =       0.03 minutes

    Psi4 stopped on: Sunday, 10 August 2025 05:08PM
    Psi4 wall time for execution: 0:00:01.40

*** Psi4 exiting successfully. Buy a developer a beer!
