                               Psi4 1.9.1 release

  ==> Input File <==

--------------------------------------------------------------------------
molecule {
0 3
O           0.000000           0.000000           0.000000
O           0.000000           0.000000           0.967123
}

set {
basis              cc-pvtz
reference          uks
maxiter            500
DAMPING_PERCENTAGE 1
E_CONVERGENCE      1.0E-8
D_CONVERGENCE      1.0E-8
DIIS_MAX_VECS      400
MBIS_MAXITER       8000
guess              read
}

E, wfn = energy('b3lyp', restart_file='last_wfn', return_wfn=True)
properties('b3lyp','MBIS_CHARGES', wfn=wfn)
wfn.to_file('last_wfn')
--------------------------------------------------------------------------

    Molecular point group: d2h
  Charge       = 0
  Multiplicity = 3
  Basis Set: CC-PVTZ
    Blend: CC-PVTZ
  Basis Set: (CC-PVTZ AUX)
    Blend: CC-PVTZ-JKFIT
  @DF-UKS Final Energy:  -150.22931907971244
    Total Energy =                       -150.2293190797124680
 Dipole X            :          0.0000000            0.0000000            0.0000000
 Dipole Y            :          0.0000000            0.0000000            0.0000000
 Dipole Z            :          0.0000000            0.0000000            0.0000000
 Magnitude           :                                                    0.0000000
    Molecular point group: d2h

    Geometry (in Angstrom), charge = 0, multiplicity = 3:

       Center              X                  Y                   Z               Mass
    ------------   -----------------  -----------------  -----------------  -----------------
         O            0.000000000000     0.000000000000    -0.483561500000    15.994914619570
         O            0.000000000000     0.000000000000     0.483561500000    15.994914619570

  Charge       = 0
  Multiplicity = 3
  Basis Set: CC-PVTZ
    Blend: CC-PVTZ
  Basis Set: (CC-PVTZ AUX)
    Blend: CC-PVTZ-JKFIT

    Orbital Energies [Eh]
    ---------------------

    Alpha Occupied:

       1Ag   -19.256655     1B1u  -19.254880     2Ag    -1.543441
       2B1u   -0.764625     1B2u   -0.678075     1B3u   -0.678075
       3Ag    -0.593897     1B2g   -0.205066     1B3g   -0.205066

    Alpha Virtual:

       3B1u    0.334653     2B2u    0.462170     2B3u    0.462170
       4Ag     0.510689     2B2g    0.627881     2B3g    0.627881
       5Ag     0.649101     4B1u    0.831779     6Ag     1.141844
       1B1g    1.141844     5B1u    1.158484     3B2u    1.461646
       3B3u    1.461646     6B1u    1.706119     1Au     1.706119
       7Ag     2.183284     3B3g    2.258588     3B2g    2.258588
       7B1u    2.420755     4B2u    3.409559     4B3u    3.409559
       8Ag     3.743871     4B3g    3.878574     4B2g    3.878574
       8B1u    4.410547     2B1g    4.525429     9Ag     4.525429
       5B3u    4.692526     5B2u    4.692526     6B2u    4.790492
       6B3u    4.790492     5B2g    5.302181     5B3g    5.302181
      10Ag     5.326727     3B1g    5.986063    11Ag     5.986067
       9B1u    6.033612     6B3g    6.109422     6B2g    6.109422
       2Au     6.158335    10B1u    6.158339     3Au     6.389500
      11B1u    6.389500     7B2u    6.744936     7B3u    6.744936
      12Ag     6.793394    12B1u    7.589986     7B3g    8.346713
       7B2g    8.346713    13Ag     8.451935    13B1u   20.792647

    Beta Occupied:

       1Ag   -19.227272     1B1u  -19.225267     2Ag    -1.499836
       2B1u   -0.678261     1B2u   -0.583951     1B3u   -0.583951
       3Ag    -0.545978

    Beta Virtual:

       1B2g   -0.011079     1B3g   -0.011079     3B1u    0.350251
       2B2u    0.489997     2B3u    0.489997     4Ag     0.518008
       5Ag     0.674246     2B2g    0.675823     2B3g    0.675823
       4B1u    0.875277     1B1g    1.181165     6Ag     1.181165
       5B1u    1.193088     3B2u    1.499576     3B3u    1.499576
       6B1u    1.771653     1Au     1.771653     7Ag     2.207552
       3B3g    2.298700     3B2g    2.298700     7B1u    2.448348
       4B2u    3.482633     4B3u    3.482633     8Ag     3.767683
       4B3g    3.951716     4B2g    3.951716     8B1u    4.454636
       9Ag     4.559725     2B1g    4.559725     5B3u    4.756082
       5B2u    4.756082     6B2u    4.825535     6B3u    4.825535
      10Ag     5.355417     5B2g    5.377553     5B3g    5.377553
       9B1u    6.071624     3B1g    6.090819    11Ag     6.090824
       6B3g    6.159283     6B2g    6.159283     2Au     6.264773
      10B1u    6.264778     3Au     6.441297    11B1u    6.441298
       7B2u    6.793642     7B3u    6.793642    12Ag     6.844383
      12B1u    7.623852     7B3g    8.391969     7B2g    8.391969
      13Ag     8.485250    13B1u   20.833659

    Final Occupation by Irrep:
             Ag   B1g   B2g   B3g    Au   B1u   B2u   B3u
    DOCC [     3,    0,    0,    0,    0,    2,    1,    1 ]
    SOCC [     0,    0,    1,    1,    0,    0,    0,    0 ]
    NA   [     3,    0,    1,    1,    0,    2,    1,    1 ]
    NB   [     3,    0,    0,    0,    0,    2,    1,    1 ]

  @DF-UKS Final Energy:  -150.22931907983306

   => Energetics <=

    Nuclear Repulsion Energy =             35.0186496266555594
    One-Electron Energy =                -274.9178035477222011
    Two-Electron Energy =                 103.6839274455355877
    DFT Exchange-Correlation Energy =     -14.0140926043020180
    Empirical Dispersion Energy =           0.0000000000000000
    VV10 Nonlocal Energy =                  0.0000000000000000
    Total Energy =                       -150.2293190798330613

  UHF NO Occupations:
  HONO-2 :    1B3u 1.9991988
  HONO-1 :    1B2g 1.0000000
  HONO-0 :    1B3g 1.0000000
  LUNO+0 :    2B2u 0.0008012
  LUNO+1 :    2B3u 0.0008012
  LUNO+2 :    3B1u 0.0006157
  LUNO+3 :    4 Ag 0.0002396

Computation Completed

Properties will be evaluated at   0.000000,   0.000000,   0.000000 [a0]

Properties computed using the B3LYP density matrix

 Multipole Moments:

 ------------------------------------------------------------------------------------
     Multipole            Electronic (a.u.)      Nuclear  (a.u.)        Total (a.u.)
 ------------------------------------------------------------------------------------

 L = 1.  Multiply by 2.5417464519 to convert [e a0] to [Debye]
 Dipole X            :          0.0000000            0.0000000            0.0000000
 Dipole Y            :          0.0000000            0.0000000            0.0000000
 Dipole Z            :          0.0000000            0.0000000            0.0000000
 Magnitude           :                                                    0.0000000

 L = 2.  Multiply by 1.3450342976 to convert [e a0^2] to [Debye ang]
 Quadrupole XX       :         -7.0075855            0.0000000           -7.0075855
 Quadrupole XY       :          0.0000000            0.0000000            0.0000000
 Quadrupole XZ       :          0.0000000            0.0000000            0.0000000
 Quadrupole YY       :         -7.0075855            0.0000000           -7.0075855
 Quadrupole YZ       :          0.0000000            0.0000000            0.0000000
 Quadrupole ZZ       :        -21.4132776           13.3604519           -8.0528257
 Traceless XX        :          4.8018974           -4.4534840            0.3484134
 Traceless YY        :          4.8018974           -4.4534840            0.3484134
 Traceless ZZ        :         -9.6037948            8.9069680           -0.6968268

 ------------------------------------------------------------------------------------
  ==> Computing MBIS Charges <==

  Electron Count from Grid (Expected Number): 16.00000 (16.00000)
  Difference: -0.00000

  MBIS Charges: (a.u.)
   Center  Symbol  Z      Pop.       Charge
      1       O    8    8.000000    0.000000
      2       O    8    8.000000    0.000000

  MBIS Dipoles: [e a0]
   Center  Symbol  Z        X           Y           Z
      1       O    8    0.000000   -0.000000    0.188769
      2       O    8    0.000000    0.000000   -0.188769

  MBIS Quadrupoles: [e a0^2]
   Center  Symbol  Z      XX        XY        XZ        YY        YZ        ZZ
      1       O    8   -3.5038    0.0000    0.0000   -3.5038   -0.0000   -3.6814
      2       O    8   -3.5038   -0.0000   -0.0000   -3.5038    0.0000   -3.6814

  MBIS Octupoles: [e a0^3]
   Center  Symbol  Z      XXX       XXY       XXZ       XYY       XYZ       XZZ       YYY       YYZ       YZZ       ZZZ
      1       O    8   -0.0000   -0.0000    0.2731    0.0000   -0.0000   -0.0000    0.0000    0.2731   -0.0000    0.1108
      2       O    8    0.0000   -0.0000   -0.2731    0.0000    0.0000   -0.0000   -0.0000   -0.2731   -0.0000   -0.1108

  MBIS Radial Moments:
   Center  Symbol  Z      [a0^2]      [a0^3]      [a0^4]
      1       O    8   10.689005   19.616697   43.353068
      2       O    8   10.689005   19.616697   43.353068

  MBIS Valence Widths: [a0]
   Center  Symbol  Z     Width
      1       O    8    0.374311
      2       O    8    0.374311

*** tstop() called on Mac.lan at Sun Aug 10 17:01:03 2025
Module time:
	user time   =       3.43 seconds =       0.06 minutes
	system time =       2.70 seconds =       0.05 minutes
	total time  =          0 seconds =       0.00 minutes
Total time:
	user time   =      16.41 seconds =       0.27 minutes
	system time =       5.02 seconds =       0.08 minutes
	total time  =          2 seconds =       0.03 minutes

    Psi4 stopped on: Sunday, 10 August 2025 05:01PM
    Psi4 wall time for execution: 0:00:02.10

*** Psi4 exiting successfully. Buy a developer a beer!
