                               Psi4 1.9.1 release

  ==> Input File <==

--------------------------------------------------------------------------
molecule {
0 2
N           0.000000           0.000000           0.000000
C           0.000000           0.000000           1.231601
}

set {
basis              cc-pvtz
reference          uks
maxiter            500
DAMPING_PERCENTAGE 1
E_CONVERGENCE      1.0E-8
D_CONVERGENCE      1.0E-8
DIIS_MAX_VECS      400
MBIS_MAXITER       8000
guess              read
}

E, wfn = energy('b3lyp', restart_file='last_wfn', return_wfn=True)
properties('b3lyp','MBIS_CHARGES', wfn=wfn)
wfn.to_file('last_wfn')
--------------------------------------------------------------------------

    Molecular point group: c2v
  Charge       = 0
  Multiplicity = 2
  Basis Set: CC-PVTZ
    Blend: CC-PVTZ
  Basis Set: (CC-PVTZ AUX)
    Blend: CC-PVTZ-JKFIT
  @DF-UKS Final Energy:   -92.73754849504864
    Total Energy =                        -92.7375484950486424
 Dipole X            :          0.0000000            0.0000000            0.0000000
 Dipole Y            :          0.0000000            0.0000000            0.0000000
 Dipole Z            :          0.4758753            0.0016508            0.4775262
 Magnitude           :                                                    0.4775262
    Molecular point group: c2v

    Geometry (in Angstrom), charge = 0, multiplicity = 2:

       Center              X                  Y                   Z               Mass
    ------------   -----------------  -----------------  -----------------  -----------------
         N            0.000000000000     0.000000000000    -0.568364032556    14.003074004430
         C            0.000000000000     0.000000000000     0.663236967444    12.000000000000

  Charge       = 0
  Multiplicity = 2
  Basis Set: CC-PVTZ
    Blend: CC-PVTZ
  Basis Set: (CC-PVTZ AUX)
    Blend: CC-PVTZ-JKFIT

    Orbital Energies [Eh]
    ---------------------

    Alpha Occupied:

       1A1   -14.407049     2A1   -10.314205     3A1    -0.942927
       4A1    -0.518249     5A1    -0.413088     1B1    -0.381974
       1B2    -0.381974

    Alpha Virtual:

       2B1    -0.041315     2B2    -0.041315     6A1     0.163978
       7A1     0.272813     3B1     0.283947     3B2     0.283947
       8A1     0.433480     4B1     0.510178     4B2     0.510178
       9A1     0.520368    10A1     0.620657     1A2     0.620657
       5B2     0.796605     5B1     0.796605    11A1     0.872168
       2A2     1.139906    12A1     1.139906    13A1     1.198607
       6B1     1.478109     6B2     1.478109    14A1     1.711233
       7B1     1.967211     7B2     1.967211    15A1     2.156853
       8B1     2.619986     8B2     2.619986    16A1     2.677562
       3A2     2.677562     9B2     2.738863     9B1     2.738863
      17A1     2.761348    10B1     2.891606    10B2     2.891606
       4A2     2.907686    18A1     2.907686    19A1     3.045509
      11B2     3.354697    11B1     3.354697    20A1     3.703877
      12B2     3.904594    12B1     3.904594     5A2     4.304072
      21A1     4.304072     6A2     4.506056    22A1     4.506059
      13B1     4.737379    13B2     4.737379    23A1     4.842023
      24A1     5.282147    14B2     5.352049    14B1     5.352049
      25A1     5.591778    26A1    11.334596

    Beta Occupied:

       1A1   -14.401646     2A1   -10.299332     3A1    -0.919020
       4A1    -0.450912     1B2    -0.373908     1B1    -0.373908

    Beta Virtual:

       5A1    -0.254928     2B1    -0.020534     2B2    -0.020534
       6A1     0.171483     3B1     0.292788     3B2     0.292788
       7A1     0.310625     8A1     0.443793     4B1     0.511417
       4B2     0.511417     9A1     0.570148     1A2     0.630147
      10A1     0.630147     5B2     0.826215     5B1     0.826215
      11A1     0.884749     2A2     1.141661    12A1     1.141661
      13A1     1.234275     6B1     1.496776     6B2     1.496776
      14A1     1.738361     7B1     1.981091     7B2     1.981091
      15A1     2.206923     8B1     2.635179     8B2     2.635179
       3A2     2.696172    16A1     2.696172     9B2     2.764190
       9B1     2.764190    17A1     2.804649    10B1     2.932967
      10B2     2.932967     4A2     2.942543    18A1     2.942543
      19A1     3.118512    11B2     3.392543    11B1     3.392543
      20A1     3.742069    12B2     3.899502    12B1     3.899502
       5A2     4.308327    21A1     4.308328     6A2     4.509682
      22A1     4.509684    13B1     4.764403    13B2     4.764403
      23A1     4.883613    24A1     5.317057    14B2     5.378500
      14B1     5.378500    25A1     5.604853    26A1    11.353650

    Final Occupation by Irrep:
             A1    A2    B1    B2
    DOCC [     4,    0,    1,    1 ]
    SOCC [     1,    0,    0,    0 ]
    NA   [     5,    0,    1,    1 ]
    NB   [     4,    0,    1,    1 ]

  @DF-UKS Final Energy:   -92.73754849500578

   => Energetics <=

    Nuclear Repulsion Energy =             18.0459766175409122
    One-Electron Energy =                -160.3436031841361284
    Two-Electron Energy =                  59.3410363249388126
    DFT Exchange-Correlation Energy =      -9.7809582533493504
    Empirical Dispersion Energy =           0.0000000000000000
    VV10 Nonlocal Energy =                  0.0000000000000000
    Total Energy =                        -92.7375484950057682

  UHF NO Occupations:
  HONO-2 :    1 B2 1.9985932
  HONO-1 :    4 A1 1.9985564
  HONO-0 :    5 A1 1.0000000
  LUNO+0 :    6 A1 0.0014436
  LUNO+1 :    2 B1 0.0014068
  LUNO+2 :    2 B2 0.0014068
  LUNO+3 :    7 A1 0.0001197

Computation Completed

Properties will be evaluated at   0.000000,   0.000000,   0.000000 [a0]

Properties computed using the B3LYP density matrix

 Multipole Moments:

 ------------------------------------------------------------------------------------
     Multipole            Electronic (a.u.)      Nuclear  (a.u.)        Total (a.u.)
 ------------------------------------------------------------------------------------

 L = 1.  Multiply by 2.5417464519 to convert [e a0] to [Debye]
 Dipole X            :          0.0000000            0.0000000            0.0000000
 Dipole Y            :          0.0000000            0.0000000            0.0000000
 Dipole Z            :          0.4758753            0.0016508            0.4775262
 Magnitude           :                                                    0.4775262

 L = 2.  Multiply by 1.3450342976 to convert [e a0^2] to [Debye ang]
 Quadrupole XX       :         -8.3095764            0.0000000           -8.3095764
 Quadrupole XY       :          0.0000000            0.0000000            0.0000000
 Quadrupole XZ       :          0.0000000            0.0000000            0.0000000
 Quadrupole YY       :         -8.3095764            0.0000000           -8.3095764
 Quadrupole YZ       :          0.0000000            0.0000000            0.0000000
 Quadrupole ZZ       :        -25.2204465           17.5002295           -7.7202170
 Traceless XX        :          5.6369567           -5.8334098           -0.1964531
 Traceless YY        :          5.6369567           -5.8334098           -0.1964531
 Traceless ZZ        :        -11.2739134           11.6668196            0.3929063

 ------------------------------------------------------------------------------------
  ==> Computing MBIS Charges <==

  Electron Count from Grid (Expected Number): 13.00000 (13.00000)
  Difference:  0.00000

  MBIS Charges: (a.u.)
   Center  Symbol  Z      Pop.       Charge
      1       N    7    7.226003   -0.226003
      2       C    6    5.773998    0.226002

  MBIS Dipoles: [e a0]
   Center  Symbol  Z        X           Y           Z
      1       N    7    0.000000    0.000000   -0.198471
      2       C    6   -0.000000   -0.000000    0.150002

  MBIS Quadrupoles: [e a0^2]
   Center  Symbol  Z      XX        XY        XZ        YY        YZ        ZZ
      1       N    7   -4.3081    0.0000   -0.0000   -4.3081   -0.0000   -4.4899
      2       C    6   -4.0015    0.0000   -0.0000   -4.0015    0.0000   -4.1269

  MBIS Octupoles: [e a0^3]
   Center  Symbol  Z      XXX       XXY       XXZ       XYY       XYZ       XZZ       YYY       YYZ       YZZ       ZZZ
      1       N    7    0.0000    0.0000   -0.2703   -0.0000    0.0000   -0.0000   -0.0000   -0.2703    0.0000   -0.5684
      2       C    6   -0.0000    0.0000    0.1951   -0.0000   -0.0000    0.0000    0.0000    0.1951    0.0000    0.3655

  MBIS Radial Moments:
   Center  Symbol  Z      [a0^2]      [a0^3]      [a0^4]
      1       N    7   13.106115   27.979318   71.280354
      2       C    6   12.129901   28.735908   81.117329

  MBIS Valence Widths: [a0]
   Center  Symbol  Z     Width
      1       N    7    0.445809
      2       C    6    0.500260

*** tstop() called on Mac.lan at Sun Aug 10 17:13:50 2025
Module time:
	user time   =       3.56 seconds =       0.06 minutes
	system time =       2.25 seconds =       0.04 minutes
	total time  =          0 seconds =       0.00 minutes
Total time:
	user time   =      20.63 seconds =       0.34 minutes
	system time =       4.78 seconds =       0.08 minutes
	total time  =          2 seconds =       0.03 minutes

    Psi4 stopped on: Sunday, 10 August 2025 05:13PM
    Psi4 wall time for execution: 0:00:02.46

*** Psi4 exiting successfully. Buy a developer a beer!
