                               Psi4 1.9.1 release

  ==> Input File <==

--------------------------------------------------------------------------
molecule {
0 2
O           0.000000           0.000000           0.000000
N           0.000000           0.000000           1.150629
}

set {
basis              cc-pvtz
reference          uks
maxiter            500
DAMPING_PERCENTAGE 1
E_CONVERGENCE      1.0E-8
D_CONVERGENCE      1.0E-8
DIIS_MAX_VECS      400
MBIS_MAXITER       8000
guess              read
}

E, wfn = energy('b3lyp', restart_file='last_wfn', return_wfn=True)
properties('b3lyp','MBIS_CHARGES', wfn=wfn)
wfn.to_file('last_wfn')
--------------------------------------------------------------------------

    Molecular point group: c2v
  Charge       = 0
  Multiplicity = 2
  Basis Set: CC-PVTZ
    Blend: CC-PVTZ
  Basis Set: (CC-PVTZ AUX)
    Blend: CC-PVTZ-JKFIT
  @DF-UKS Final Energy:  -129.94047588351648
    Total Energy =                       -129.9404758835164841
 Dipole X            :          0.0000000            0.0000000            0.0000000
 Dipole Y            :          0.0000000            0.0000000            0.0000000
 Dipole Z            :         -0.0335845           -0.0043628           -0.0379473
 Magnitude           :                                                    0.0379473
    Molecular point group: c2v

    Geometry (in Angstrom), charge = 0, multiplicity = 2:

       Center              X                  Y                   Z               Mass
    ------------   -----------------  -----------------  -----------------  -----------------
         O            0.000000000000     0.000000000000    -0.537114112569    15.994914619570
         N            0.000000000000     0.000000000000     0.613514887431    14.003074004430

  Charge       = 0
  Multiplicity = 2
  Basis Set: CC-PVTZ
    Blend: CC-PVTZ
  Basis Set: (CC-PVTZ AUX)
    Blend: CC-PVTZ-JKFIT

    Orbital Energies [Eh]
    ---------------------

    Alpha Occupied:

       1A1   -19.270028     2A1   -14.458219     3A1    -1.250225
       4A1    -0.692514     1B1    -0.541219     1B2    -0.513849
       5A1    -0.489720     2B1    -0.220722

    Alpha Virtual:

       2B2    -0.109431     6A1     0.235275     3B1     0.410696
       3B2     0.417140     7A1     0.447032     8A1     0.508329
       9A1     0.570764     4B1     0.593824     4B2     0.601093
       1A2     0.921137    10A1     0.922940     5B1     1.122580
       5B2     1.123252    11A1     1.172674     2A2     1.517150
      12A1     1.518358    13A1     1.629422     6B1     1.992825
       6B2     1.994846    14A1     2.201897     7B1     2.804463
       7B2     2.821115    15A1     3.056263     8B1     3.523357
       8B2     3.531630     3A2     3.754433    16A1     3.756016
       9B1     3.776775     9B2     3.777334    17A1     3.883979
      10B1     4.045013    10B2     4.045729    18A1     4.270182
       4A2     4.351142    19A1     4.357112    11B1     4.720964
      11B2     4.724758    20A1     4.774894    12B1     5.047137
      12B2     5.047258     5A2     5.529494    21A1     5.530613
       6A2     6.147027    22A1     6.149107    23A1     6.260764
      13B1     6.377392    13B2     6.380925    14B2     6.907626
      14B1     6.909562    24A1     6.942832    25A1     7.112435
      26A1    13.256890

    Beta Occupied:

       1A1   -19.259464     2A1   -14.442514     3A1    -1.229231
       4A1    -0.656023     1B2    -0.504314     1B1    -0.468137
       5A1    -0.465690

    Beta Virtual:

       2B2    -0.093940     2B1    -0.052220     6A1     0.242305
       3B2     0.422990     3B1     0.445322     7A1     0.462212
       8A1     0.520180     9A1     0.582865     4B2     0.604907
       4B1     0.622411     1A2     0.947538    10A1     0.947637
       5B2     1.125861     5B1     1.153530    11A1     1.181728
      12A1     1.540147     2A2     1.540340    13A1     1.643442
       6B2     1.997985     6B1     2.021414    14A1     2.214639
       7B2     2.834164     7B1     2.874067    15A1     3.070155
       8B2     3.538180     8B1     3.569127    16A1     3.777824
       3A2     3.777870     9B2     3.821279     9B1     3.821351
      17A1     3.901684    10B2     4.050629    10B1     4.082622
      18A1     4.287588     4A2     4.416680    19A1     4.418285
      11B2     4.729722    11B1     4.764446    20A1     4.791539
      12B2     5.071639    12B1     5.071648     5A2     5.549114
      21A1     5.549244    22A1     6.184392     6A2     6.184625
      23A1     6.273189    13B2     6.384672    13B1     6.414444
      14B2     6.910704    14B1     6.939210    24A1     6.960037
      25A1     7.126790    26A1    13.275750

    Final Occupation by Irrep:
             A1    A2    B1    B2
    DOCC [     5,    0,    1,    1 ]
    SOCC [     0,    0,    1,    0 ]
    NA   [     5,    0,    2,    1 ]
    NB   [     5,    0,    1,    1 ]

  @DF-UKS Final Energy:  -129.94047588409796

   => Energetics <=

    Nuclear Repulsion Energy =             25.7545427740131707
    One-Electron Energy =                -227.9995919785350225
    Two-Electron Energy =                  84.7258420944292396
    DFT Exchange-Correlation Energy =     -12.4212687740053553
    Empirical Dispersion Energy =           0.0000000000000000
    VV10 Nonlocal Energy =                  0.0000000000000000
    Total Energy =                       -129.9404758840979639

  UHF NO Occupations:
  HONO-2 :    5 A1 1.9995233
  HONO-1 :    1 B1 1.9991832
  HONO-0 :    2 B1 1.0000000
  LUNO+0 :    3 B1 0.0008168
  LUNO+1 :    6 A1 0.0004767
  LUNO+2 :    2 B2 0.0001264
  LUNO+3 :    7 A1 0.0000939

Computation Completed

Properties will be evaluated at   0.000000,   0.000000,   0.000000 [a0]

Properties computed using the B3LYP density matrix

 Multipole Moments:

 ------------------------------------------------------------------------------------
     Multipole            Electronic (a.u.)      Nuclear  (a.u.)        Total (a.u.)
 ------------------------------------------------------------------------------------

 L = 1.  Multiply by 2.5417464519 to convert [e a0] to [Debye]
 Dipole X            :          0.0000000            0.0000000            0.0000000
 Dipole Y            :          0.0000000            0.0000000            0.0000000
 Dipole Z            :         -0.0335845           -0.0043628           -0.0379473
 Magnitude           :                                                    0.0379473

 L = 2.  Multiply by 1.3450342976 to convert [e a0^2] to [Debye ang]
 Quadrupole XX       :         -7.9193242            0.0000000           -7.9193242
 Quadrupole XY       :          0.0000000            0.0000000            0.0000000
 Quadrupole XZ       :          0.0000000            0.0000000            0.0000000
 Quadrupole YY       :         -7.1051145            0.0000000           -7.1051145
 Quadrupole YZ       :          0.0000000            0.0000000            0.0000000
 Quadrupole ZZ       :        -26.0513861           17.6508313           -8.4005548
 Traceless XX        :          5.7726174           -5.8836104           -0.1109931
 Traceless YY        :          6.5868271           -5.8836104            0.7032167
 Traceless ZZ        :        -12.3594445           11.7672209           -0.5922236

 ------------------------------------------------------------------------------------
  ==> Computing MBIS Charges <==

  Electron Count from Grid (Expected Number): 15.00000 (15.00000)
  Difference:  0.00000

  MBIS Charges: (a.u.)
   Center  Symbol  Z      Pop.       Charge
      1       O    8    8.037129   -0.037129
      2       N    7    6.962871    0.037129

  MBIS Dipoles: [e a0]
   Center  Symbol  Z        X           Y           Z
      1       O    8   -0.000000   -0.000000    0.048615
      2       N    7   -0.000000   -0.000000   -0.167294

  MBIS Quadrupoles: [e a0^2]
   Center  Symbol  Z      XX        XY        XZ        YY        YZ        ZZ
      1       O    8   -3.7309   -0.0000    0.0000   -3.4748   -0.0000   -3.7559
      2       N    7   -4.1884   -0.0000    0.0000   -3.6304    0.0000   -4.1697

  MBIS Octupoles: [e a0^3]
   Center  Symbol  Z      XXX       XXY       XXZ       XYY       XYZ       XZZ       YYY       YYZ       YZZ       ZZZ
      1       O    8   -0.0000   -0.0000    0.1137    0.0000   -0.0000   -0.0000   -0.0000    0.0562    0.0000   -0.0167
      2       N    7   -0.0000   -0.0000   -0.2833    0.0000    0.0000    0.0000   -0.0000   -0.0428    0.0000   -0.0198

  MBIS Radial Moments:
   Center  Symbol  Z      [a0^2]      [a0^3]      [a0^4]
      1       O    8   10.961539   20.184043   44.619379
      2       N    7   11.988508   25.112029   62.751065

  MBIS Valence Widths: [a0]
   Center  Symbol  Z     Width
      1       O    8    0.378915
      2       N    7    0.436200

*** tstop() called on Mac.lan at Sun Aug 10 17:19:33 2025
Module time:
	user time   =       3.67 seconds =       0.06 minutes
	system time =       2.04 seconds =       0.03 minutes
	total time  =          0 seconds =       0.00 minutes
Total time:
	user time   =      18.86 seconds =       0.31 minutes
	system time =       4.65 seconds =       0.08 minutes
	total time  =          2 seconds =       0.03 minutes

    Psi4 stopped on: Sunday, 10 August 2025 05:19PM
    Psi4 wall time for execution: 0:00:02.28

*** Psi4 exiting successfully. Buy a developer a beer!
