                               Psi4 1.9.1 release

  ==> Input File <==

--------------------------------------------------------------------------
molecule {
0 2
O           0.000000           0.000000           0.000000
N           0.000000           0.000000           1.718928
}

set {
basis              cc-pvtz
reference          uks
maxiter            500
DAMPING_PERCENTAGE 1
E_CONVERGENCE      1.0E-8
D_CONVERGENCE      1.0E-8
DIIS_MAX_VECS      400
MBIS_MAXITER       8000
guess              read
}

E, wfn = energy('b3lyp', restart_file='last_wfn', return_wfn=True)
properties('b3lyp','MBIS_CHARGES', wfn=wfn)
wfn.to_file('last_wfn')
--------------------------------------------------------------------------

    Molecular point group: c2v
  Charge       = 0
  Multiplicity = 2
  Basis Set: CC-PVTZ
    Blend: CC-PVTZ
  Basis Set: (CC-PVTZ AUX)
    Blend: CC-PVTZ-JKFIT
  @DF-UKS Final Energy:  -129.76605889623653
    Total Energy =                       -129.7660588962365296
 Dipole X            :          0.0000000            0.0000000            0.0000000
 Dipole Y            :          0.0000000            0.0000000            0.0000000
 Dipole Z            :          0.3018295           -0.0065176            0.2953119
 Magnitude           :                                                    0.2953119
    Molecular point group: c2v

    Geometry (in Angstrom), charge = 0, multiplicity = 2:

       Center              X                  Y                   Z               Mass
    ------------   -----------------  -----------------  -----------------  -----------------
         O            0.000000000000     0.000000000000    -0.802396330434    15.994914619570
         N            0.000000000000     0.000000000000     0.916531669566    14.003074004430

  Charge       = 0
  Multiplicity = 2
  Basis Set: CC-PVTZ
    Blend: CC-PVTZ
  Basis Set: (CC-PVTZ AUX)
    Blend: CC-PVTZ-JKFIT

    Orbital Energies [Eh]
    ---------------------

    Alpha Occupied:

       1A1   -19.235863     2A1   -14.506174     3A1    -0.956989
       4A1    -0.789237     5A1    -0.416273     1B1    -0.414081
       1B2    -0.397685     2B1    -0.318730

    Alpha Virtual:

       2B2    -0.181736     6A1    -0.090221     7A1     0.405352
       3B1     0.413514     3B2     0.413678     8A1     0.509316
       9A1     0.599406     4B1     0.602757     4B2     0.625762
       1A2     0.949139    10A1     0.949299     5B2     0.956552
       5B1     0.959047    11A1     1.039223    12A1     1.314204
       2A2     1.473518    13A1     1.478746     6B1     1.687140
       6B2     1.693888    14A1     1.991167     7B2     2.708164
       7B1     2.708381    15A1     2.945560    16A1     3.456929
       8B1     3.527520     8B2     3.557508     9B1     3.768553
       9B2     3.768556     3A2     3.772575    17A1     3.772697
      10B1     3.842349    10B2     3.844596    18A1     4.114864
       4A2     4.276562    19A1     4.276755    11B2     4.377267
      11B1     4.378252    20A1     4.778111    12B1     5.107038
      12B2     5.109336     5A2     5.109933    21A1     5.114895
      22A1     5.265542    13B1     5.291675    13B2     5.298468
      23A1     5.667238     6A2     6.168370    24A1     6.181448
      14B1     6.346321    14B2     6.373179    25A1     6.849460
      26A1     7.830295

    Beta Occupied:

       1A1   -19.262252     2A1   -14.463563     3A1    -1.005629
       4A1    -0.689420     1B2    -0.439297     5A1    -0.417322
       1B1    -0.369072

    Beta Virtual:

       2B2    -0.149874     2B1    -0.139750     6A1    -0.069832
       7A1     0.427230     3B2     0.465357     3B1     0.475625
       8A1     0.533968     4B2     0.576983     9A1     0.600886
       4B1     0.605217     5B2     0.985078     5B1     0.998447
      10A1     1.025105     1A2     1.031432    11A1     1.031564
      12A1     1.331892     2A2     1.434512    13A1     1.437159
       6B2     1.662414     6B1     1.693864    14A1     1.990628
       7B2     2.812951     7B1     2.819950    15A1     2.969941
       8B2     3.468831    16A1     3.474113     8B1     3.525408
      17A1     3.861290     3A2     3.861292     9B2     3.884116
       9B1     3.885126    10B2     3.887313    10B1     3.901720
      18A1     4.146007     4A2     4.433527    19A1     4.433547
      11B2     4.469130    11B1     4.478687    20A1     4.801387
      12B2     5.049917    12B1     5.050245     5A2     5.063920
      21A1     5.065449    13B2     5.238503    13B1     5.282415
      22A1     5.347123    23A1     5.642309    24A1     6.093014
       6A2     6.093064    14B2     6.268988    14B1     6.325778
      25A1     6.814855    26A1     7.781246

    Final Occupation by Irrep:
             A1    A2    B1    B2
    DOCC [     5,    0,    1,    1 ]
    SOCC [     0,    0,    1,    0 ]
    NA   [     5,    0,    2,    1 ]
    NB   [     5,    0,    1,    1 ]

  @DF-UKS Final Energy:  -129.76605889579884

   => Energetics <=

    Nuclear Repulsion Energy =             17.2397702507143968
    One-Electron Energy =                -211.5074062142073217
    Two-Electron Energy =                  76.7644675772892384
    DFT Exchange-Correlation Energy =     -12.2628905095951648
    Empirical Dispersion Energy =           0.0000000000000000
    VV10 Nonlocal Energy =                  0.0000000000000000
    Total Energy =                       -129.7660588957988352

  UHF NO Occupations:
  HONO-2 :    5 A1 1.9680835
  HONO-1 :    1 B2 1.4725564
  HONO-0 :    2 B1 1.0000000
  LUNO+0 :    2 B2 0.5274436
  LUNO+1 :    6 A1 0.0319165
  LUNO+2 :    7 A1 0.0009213
  LUNO+3 :    8 A1 0.0003604

Computation Completed

Properties will be evaluated at   0.000000,   0.000000,   0.000000 [a0]

Properties computed using the B3LYP density matrix

 Multipole Moments:

 ------------------------------------------------------------------------------------
     Multipole            Electronic (a.u.)      Nuclear  (a.u.)        Total (a.u.)
 ------------------------------------------------------------------------------------

 L = 1.  Multiply by 2.5417464519 to convert [e a0] to [Debye]
 Dipole X            :          0.0000000            0.0000000            0.0000000
 Dipole Y            :          0.0000000            0.0000000            0.0000000
 Dipole Z            :          0.3018296           -0.0065176            0.2953120
 Magnitude           :                                                    0.2953120

 L = 2.  Multiply by 1.3450342976 to convert [e a0^2] to [Debye ang]
 Quadrupole XX       :         -8.3138503            0.0000000           -8.3138503
 Quadrupole XY       :          0.0000000            0.0000000            0.0000000
 Quadrupole XZ       :          0.0000000            0.0000000            0.0000000
 Quadrupole YY       :         -7.4967083            0.0000000           -7.4967083
 Quadrupole YZ       :          0.0000000            0.0000000            0.0000000
 Quadrupole ZZ       :        -47.3013998           39.3921700           -7.9092298
 Traceless XX        :         12.7234692          -13.1307233           -0.4072542
 Traceless YY        :         13.5406112          -13.1307233            0.4098878
 Traceless ZZ        :        -26.2640803           26.2614467           -0.0026337

 ------------------------------------------------------------------------------------
  ==> Computing MBIS Charges <==

  Electron Count from Grid (Expected Number): 15.00000 (15.00000)
  Difference: -0.00000

  MBIS Charges: (a.u.)
   Center  Symbol  Z      Pop.       Charge
      1       O    8    8.117728   -0.117728
      2       N    7    6.882271    0.117729

  MBIS Dipoles: [e a0]
   Center  Symbol  Z        X           Y           Z
      1       O    8    0.000000    0.000000   -0.022804
      2       N    7   -0.000000   -0.000000   -0.064303

  MBIS Quadrupoles: [e a0^2]
   Center  Symbol  Z      XX        XY        XZ        YY        YZ        ZZ
      1       O    8   -4.2946   -0.0000   -0.0000   -3.6220   -0.0000   -3.8638
      2       N    7   -4.0193    0.0000   -0.0000   -3.8747   -0.0000   -3.9743

  MBIS Octupoles: [e a0^3]
   Center  Symbol  Z      XXX       XXY       XXZ       XYY       XYZ       XZZ       YYY       YYZ       YZZ       ZZZ
      1       O    8    0.0000   -0.0000    0.0247   -0.0000   -0.0000    0.0000   -0.0000   -0.0684   -0.0000   -0.2941
      2       N    7   -0.0000   -0.0000    0.0354   -0.0000    0.0000    0.0000   -0.0000   -0.0149   -0.0000    0.2724

  MBIS Radial Moments:
   Center  Symbol  Z      [a0^2]      [a0^3]      [a0^4]
      1       O    8   11.780298   22.443727   51.179042
      2       N    7   11.868380   24.903155   62.358688

  MBIS Valence Widths: [a0]
   Center  Symbol  Z     Width
      1       O    8    0.390743
      2       N    7    0.437913

*** tstop() called on Mac.lan at Sun Aug 10 17:21:47 2025
Module time:
	user time   =       3.66 seconds =       0.06 minutes
	system time =       2.37 seconds =       0.04 minutes
	total time  =          1 seconds =       0.02 minutes
Total time:
	user time   =      19.90 seconds =       0.33 minutes
	system time =       4.75 seconds =       0.08 minutes
	total time  =          2 seconds =       0.03 minutes

    Psi4 stopped on: Sunday, 10 August 2025 05:21PM
    Psi4 wall time for execution: 0:00:02.38

*** Psi4 exiting successfully. Buy a developer a beer!
