                               Psi4 1.9.1 release

  ==> Input File <==

--------------------------------------------------------------------------
molecule {
0 3
C           0.000000           0.000000           0.000000
C           0.000000           0.000000           1.235390
}

set {
basis              cc-pvtz
reference          uks
maxiter            500
DAMPING_PERCENTAGE 1
E_CONVERGENCE      1.0E-8
D_CONVERGENCE      1.0E-8
DIIS_MAX_VECS      400
MBIS_MAXITER       8000
guess              read
}

E, wfn = energy('b3lyp', restart_file='last_wfn', return_wfn=True)
properties('b3lyp','MBIS_CHARGES', wfn=wfn)
wfn.to_file('last_wfn')
--------------------------------------------------------------------------

    Molecular point group: d2h
  Charge       = 0
  Multiplicity = 3
  Basis Set: CC-PVTZ
    Blend: CC-PVTZ
  Basis Set: (CC-PVTZ AUX)
    Blend: CC-PVTZ-JKFIT
  @DF-UKS Final Energy:   -75.93824689348575
    Total Energy =                        -75.9382468934857684
 Dipole X            :          0.0000000            0.0000000            0.0000000
 Dipole Y            :          0.0000000            0.0000000            0.0000000
 Dipole Z            :          0.0000000           -0.0000000           -0.0000000
 Magnitude           :                                                    0.0000000
    Molecular point group: d2h

    Geometry (in Angstrom), charge = 0, multiplicity = 3:

       Center              X                  Y                   Z               Mass
    ------------   -----------------  -----------------  -----------------  -----------------
         C            0.000000000000     0.000000000000    -0.617695000000    12.000000000000
         C            0.000000000000     0.000000000000     0.617695000000    12.000000000000

  Charge       = 0
  Multiplicity = 3
  Basis Set: CC-PVTZ
    Blend: CC-PVTZ
  Basis Set: (CC-PVTZ AUX)
    Blend: CC-PVTZ-JKFIT

    Orbital Energies [Eh]
    ---------------------

    Alpha Occupied:

       1Ag   -10.279067     1B1u  -10.277001     2Ag    -0.852704
       2B1u   -0.444002     1B3u   -0.388190     3Ag    -0.360746
       1B2u   -0.351350

    Alpha Virtual:

       1B2g   -0.031549     1B3g   -0.004548     3B1u    0.182483
       2B3u    0.249834     4Ag     0.263786     2B2u    0.265177
       5Ag     0.325719     2B2g    0.361978     2B3g    0.376291
       4B1u    0.508795     1B1g    0.541639     6Ag     0.542401
       5B1u    0.642801     3B3u    0.733163     3B2u    0.757009
       1Au     0.853548     6B1u    0.854183     3B2g    1.120059
       3B3g    1.135336     7Ag     1.135396     7B1u    1.381967
       4B3u    1.877686     4B2u    1.904973     8Ag     2.025191
       4B2g    2.158887     4B3g    2.187560     8B1u    2.319658
       2B1g    2.387361     9Ag     2.388350     5B3u    2.438104
       5B2u    2.459364     6B3u    2.459540     6B2u    2.469165
      10Ag     2.701792     5B2g    2.852172     5B3g    2.852302
       3B1g    2.903496    11Ag     2.904069     6B2g    2.954836
       6B3g    2.974248     9B1u    2.990590     2Au     2.990756
      10B1u    3.273077     7B3u    3.430986     7B2u    3.456776
       3Au     3.494072    11B1u    3.494990    12Ag     3.588833
      12B1u    3.980805     7B2g    4.587769     7B3g    4.616864
      13Ag     4.816888    13B1u   12.711482

    Beta Occupied:

       1Ag   -10.262374     1B1u  -10.260706     2Ag    -0.782403
       2B1u   -0.354572     1B2u   -0.331968

    Beta Virtual:

       1B3u   -0.233771     3Ag    -0.210471     1B3g    0.017764
       1B2g    0.040528     3B1u    0.195072     2B2u    0.271197
       2B3u    0.280548     4Ag     0.285295     5Ag     0.362172
       2B3g    0.384802     2B2g    0.395139     4B1u    0.556576
       1B1g    0.570418     6Ag     0.573101     5B1u    0.674895
       3B2u    0.784805     3B3u    0.788857     1Au     0.877966
       6B1u    0.879922     3B3g    1.155237     3B2g    1.158043
       7Ag     1.175430     7B1u    1.428101     4B2u    1.918274
       4B3u    1.931304     8Ag     2.072965     4B3g    2.200365
       4B2g    2.209729     8B1u    2.368715     2B1g    2.428605
       9Ag     2.431555     5B2u    2.495078     5B3u    2.496028
       6B2u    2.504137     6B3u    2.517227    10Ag     2.775628
       5B3g    2.887003     5B2g    2.888001     3B1g    2.951075
      11Ag     2.955639     6B3g    3.022750     6B2g    3.030008
       2Au     3.035832     9B1u    3.040392    10B1u    3.330600
       7B2u    3.499367     7B3u    3.504671     3Au     3.535694
      11B1u    3.538686    12Ag     3.630766    12B1u    4.041236
       7B3g    4.647242     7B2g    4.657578    13Ag     4.858996
      13B1u   12.738022

    Final Occupation by Irrep:
             Ag   B1g   B2g   B3g    Au   B1u   B2u   B3u
    DOCC [     2,    0,    0,    0,    0,    2,    1,    0 ]
    SOCC [     1,    0,    0,    0,    0,    0,    0,    1 ]
    NA   [     3,    0,    0,    0,    0,    2,    1,    1 ]
    NB   [     2,    0,    0,    0,    0,    2,    1,    0 ]

  @DF-UKS Final Energy:   -75.93824689352459

   => Energetics <=

    Nuclear Repulsion Energy =             15.4205389262662003
    One-Electron Energy =                -131.5688060471404413
    Two-Electron Energy =                  48.8149894378928551
    DFT Exchange-Correlation Energy =      -8.6049692105432101
    Empirical Dispersion Energy =           0.0000000000000000
    VV10 Nonlocal Energy =                  0.0000000000000000
    Total Energy =                        -75.9382468935245925

  UHF NO Occupations:
  HONO-2 :    2B1u 1.9984930
  HONO-1 :    1B3u 1.0000000
  HONO-0 :    3 Ag 1.0000000
  LUNO+0 :    3B1u 0.0015070
  LUNO+1 :    4 Ag 0.0003712
  LUNO+2 :    2B2u 0.0001462
  LUNO+3 :    4B1u 0.0000006

Computation Completed

Properties will be evaluated at   0.000000,   0.000000,   0.000000 [a0]

Properties computed using the B3LYP density matrix

 Multipole Moments:

 ------------------------------------------------------------------------------------
     Multipole            Electronic (a.u.)      Nuclear  (a.u.)        Total (a.u.)
 ------------------------------------------------------------------------------------

 L = 1.  Multiply by 2.5417464519 to convert [e a0] to [Debye]
 Dipole X            :          0.0000000            0.0000000            0.0000000
 Dipole Y            :          0.0000000            0.0000000            0.0000000
 Dipole Z            :          0.0000000           -0.0000000           -0.0000000
 Magnitude           :                                                    0.0000000

 L = 2.  Multiply by 1.3450342976 to convert [e a0^2] to [Debye ang]
 Quadrupole XX       :         -7.7299263            0.0000000           -7.7299263
 Quadrupole XY       :          0.0000000            0.0000000            0.0000000
 Quadrupole XZ       :          0.0000000            0.0000000            0.0000000
 Quadrupole YY       :         -9.1229825            0.0000000           -9.1229825
 Quadrupole YZ       :          0.0000000            0.0000000            0.0000000
 Quadrupole ZZ       :        -25.5527417           16.3503537           -9.2023879
 Traceless XX        :          6.4052905           -5.4501179            0.9551726
 Traceless YY        :          5.0122343           -5.4501179           -0.4378836
 Traceless ZZ        :        -11.4175248           10.9002358           -0.5172890

 ------------------------------------------------------------------------------------
  ==> Computing MBIS Charges <==

  Electron Count from Grid (Expected Number): 12.00000 (12.00000)
  Difference: -0.00000

  MBIS Charges: (a.u.)
   Center  Symbol  Z      Pop.       Charge
      1       C    6    6.000000    0.000000
      2       C    6    6.000000    0.000000

  MBIS Dipoles: [e a0]
   Center  Symbol  Z        X           Y           Z
      1       C    6   -0.000000    0.000000   -0.034661
      2       C    6   -0.000000    0.000000    0.034661

  MBIS Quadrupoles: [e a0^2]
   Center  Symbol  Z      XX        XY        XZ        YY        YZ        ZZ
      1       C    6   -3.8650    0.0000    0.0000   -4.5615   -0.0000   -4.6821
      2       C    6   -3.8650   -0.0000   -0.0000   -4.5615    0.0000   -4.6821

  MBIS Octupoles: [e a0^3]
   Center  Symbol  Z      XXX       XXY       XXZ       XYY       XYZ       XZZ       YYY       YYZ       YZZ       ZZZ
      1       C    6   -0.0000    0.0000    0.1083   -0.0000    0.0000   -0.0000    0.0000   -0.1050    0.0000    0.0773
      2       C    6   -0.0000    0.0000   -0.1083   -0.0000   -0.0000   -0.0000    0.0000    0.1050    0.0000   -0.0773

  MBIS Radial Moments:
   Center  Symbol  Z      [a0^2]      [a0^3]      [a0^4]
      1       C    6   13.108565   31.540993   90.702570
      2       C    6   13.108565   31.540993   90.702570

  MBIS Valence Widths: [a0]
   Center  Symbol  Z     Width
      1       C    6    0.505748
      2       C    6    0.505748

*** tstop() called on Mac.lan at Sun Aug 10 17:03:14 2025
Module time:
	user time   =       3.66 seconds =       0.06 minutes
	system time =       2.15 seconds =       0.04 minutes
	total time  =          1 seconds =       0.02 minutes
Total time:
	user time   =      16.63 seconds =       0.28 minutes
	system time =       4.26 seconds =       0.07 minutes
	total time  =          2 seconds =       0.03 minutes

    Psi4 stopped on: Sunday, 10 August 2025 05:03PM
    Psi4 wall time for execution: 0:00:02.04

*** Psi4 exiting successfully. Buy a developer a beer!
