                               Psi4 1.9.1 release

  ==> Input File <==

--------------------------------------------------------------------------
molecule {
0 2
O           0.000000           0.000000           0.000000
N           0.000000           0.000000           1.066437
}

set {
basis              cc-pvtz
reference          uks
maxiter            500
DAMPING_PERCENTAGE 1
E_CONVERGENCE      1.0E-8
D_CONVERGENCE      1.0E-8
DIIS_MAX_VECS      400
MBIS_MAXITER       8000
guess              read
}

E, wfn = energy('b3lyp', restart_file='last_wfn', return_wfn=True)
properties('b3lyp','MBIS_CHARGES', wfn=wfn)
wfn.to_file('last_wfn')
--------------------------------------------------------------------------

    Molecular point group: c2v
  Charge       = 0
  Multiplicity = 2
  Basis Set: CC-PVTZ
    Blend: CC-PVTZ
  Basis Set: (CC-PVTZ AUX)
    Blend: CC-PVTZ-JKFIT
  @DF-UKS Final Energy:  -129.92529898137531
    Total Energy =                       -129.9252989813753061
 Dipole X            :          0.0000000            0.0000000            0.0000000
 Dipole Y            :          0.0000000            0.0000000            0.0000000
 Dipole Z            :         -0.1205030           -0.0040436           -0.1245465
 Magnitude           :                                                    0.1245465
    Molecular point group: c2v

    Geometry (in Angstrom), charge = 0, multiplicity = 2:

       Center              X                  Y                   Z               Mass
    ------------   -----------------  -----------------  -----------------  -----------------
         O            0.000000000000     0.000000000000    -0.497813250723    15.994914619570
         N            0.000000000000     0.000000000000     0.568623749277    14.003074004430

  Charge       = 0
  Multiplicity = 2
  Basis Set: CC-PVTZ
    Blend: CC-PVTZ
  Basis Set: (CC-PVTZ AUX)
    Blend: CC-PVTZ-JKFIT

    Orbital Energies [Eh]
    ---------------------

    Alpha Occupied:

       1A1   -19.265050     2A1   -14.435368     3A1    -1.316935
       4A1    -0.678241     1B1    -0.574733     1B2    -0.549719
       5A1    -0.494008     2B1    -0.183901

    Alpha Virtual:

       2B2    -0.073335     6A1     0.243263     3B1     0.403794
       3B2     0.408871     7A1     0.442050     8A1     0.527695
       4B1     0.594568     4B2     0.603173     9A1     0.685151
       1A2     0.913469    10A1     0.915204     5B1     1.171564
      11A1     1.172051     5B2     1.172979     2A2     1.541932
      12A1     1.543230    13A1     1.722458     6B1     2.029403
       6B2     2.032176    14A1     2.255996     7B1     2.807918
       7B2     2.822829    15A1     3.090830     8B1     3.594209
       8B2     3.602566    16A1     3.748109     9B1     3.765137
       9B2     3.765646     3A2     3.782863    17A1     3.784976
      10B1     4.075343    10B2     4.076222     4A2     4.362481
      18A1     4.367356    19A1     4.438393    11B1     4.762919
      11B2     4.764492    20A1     5.033026    12B1     5.060719
      12B2     5.060848     5A2     5.700230    21A1     5.701449
       6A2     6.151057    22A1     6.153140    13B1     6.500099
      13B2     6.503364    23A1     6.535427    24A1     7.049772
      14B2     7.189383    14B1     7.190845    25A1     7.412024
      26A1    15.617001

    Beta Occupied:

       1A1   -19.254103     2A1   -14.420504     3A1    -1.297317
       4A1    -0.644159     1B2    -0.539969     1B1    -0.503122
       5A1    -0.467044

    Beta Virtual:

       2B2    -0.058353     2B1    -0.017691     6A1     0.248013
       3B2     0.414028     3B1     0.435726     7A1     0.454920
       8A1     0.536458     4B2     0.607730     4B1     0.625959
       9A1     0.705402     1A2     0.938434    10A1     0.938592
       5B2     1.175804    11A1     1.181072     5B1     1.204098
      12A1     1.566826     2A2     1.566865    13A1     1.736589
       6B2     2.035711     6B1     2.059130    14A1     2.269740
       7B2     2.834891     7B1     2.873851    15A1     3.105276
       8B2     3.609919     8B1     3.641648    16A1     3.764741
       3A2     3.804495    17A1     3.805579     9B2     3.806788
       9B1     3.806859    10B2     4.080731    10B1     4.113324
      18A1     4.417610     4A2     4.424218    19A1     4.463384
      11B2     4.768713    11B1     4.801572    20A1     5.048992
      12B2     5.086567    12B1     5.086578     5A2     5.721725
      21A1     5.721924    22A1     6.189542     6A2     6.189580
      13B2     6.507360    13B1     6.536913    23A1     6.546152
      24A1     7.067133    14B2     7.193397    14B1     7.223713
      25A1     7.428415    26A1    15.635360

    Final Occupation by Irrep:
             A1    A2    B1    B2
    DOCC [     5,    0,    1,    1 ]
    SOCC [     0,    0,    1,    0 ]
    NA   [     5,    0,    2,    1 ]
    NB   [     5,    0,    1,    1 ]

  @DF-UKS Final Energy:  -129.92529898165739

   => Energetics <=

    Nuclear Repulsion Energy =             27.7877866179811832
    One-Electron Energy =                -231.8214306053780831
    Two-Electron Energy =                  86.6062379174181416
    DFT Exchange-Correlation Energy =     -12.4978929116786475
    Empirical Dispersion Energy =           0.0000000000000000
    VV10 Nonlocal Energy =                  0.0000000000000000
    Total Energy =                       -129.9252989816573916

  UHF NO Occupations:
  HONO-2 :    5 A1 1.9995698
  HONO-1 :    1 B1 1.9993365
  HONO-0 :    2 B1 1.0000000
  LUNO+0 :    3 B1 0.0006635
  LUNO+1 :    6 A1 0.0004302
  LUNO+2 :    7 A1 0.0000959
  LUNO+3 :    2 B2 0.0000601

Computation Completed

Properties will be evaluated at   0.000000,   0.000000,   0.000000 [a0]

Properties computed using the B3LYP density matrix

 Multipole Moments:

 ------------------------------------------------------------------------------------
     Multipole            Electronic (a.u.)      Nuclear  (a.u.)        Total (a.u.)
 ------------------------------------------------------------------------------------

 L = 1.  Multiply by 2.5417464519 to convert [e a0] to [Debye]
 Dipole X            :          0.0000000            0.0000000            0.0000000
 Dipole Y            :          0.0000000            0.0000000            0.0000000
 Dipole Z            :         -0.1205029           -0.0040436           -0.1245465
 Magnitude           :                                                    0.1245465

 L = 2.  Multiply by 1.3450342976 to convert [e a0^2] to [Debye ang]
 Quadrupole XX       :         -7.8157511            0.0000000           -7.8157511
 Quadrupole XY       :          0.0000000            0.0000000            0.0000000
 Quadrupole XZ       :          0.0000000            0.0000000            0.0000000
 Quadrupole YY       :         -6.9616055            0.0000000           -6.9616055
 Quadrupole YZ       :          0.0000000            0.0000000            0.0000000
 Quadrupole ZZ       :        -23.6204975           15.1622950           -8.4582025
 Traceless XX        :          4.9835336           -5.0540983           -0.0705647
 Traceless YY        :          5.8376792           -5.0540983            0.7835809
 Traceless ZZ        :        -10.8212128           10.1081967           -0.7130162

 ------------------------------------------------------------------------------------
  ==> Computing MBIS Charges <==

  Electron Count from Grid (Expected Number): 15.00000 (15.00000)
  Difference:  0.00000

  MBIS Charges: (a.u.)
   Center  Symbol  Z      Pop.       Charge
      1       O    8    7.996322    0.003678
      2       N    7    7.003678   -0.003678

  MBIS Dipoles: [e a0]
   Center  Symbol  Z        X           Y           Z
      1       O    8    0.000000    0.000000    0.071768
      2       N    7   -0.000000    0.000000   -0.188902

  MBIS Quadrupoles: [e a0^2]
   Center  Symbol  Z      XX        XY        XZ        YY        YZ        ZZ
      1       O    8   -3.6089   -0.0000    0.0000   -3.3466    0.0000   -3.6969
      2       N    7   -4.2068   -0.0000    0.0000   -3.6150   -0.0000   -4.2193

  MBIS Octupoles: [e a0^3]
   Center  Symbol  Z      XXX       XXY       XXZ       XYY       XYZ       XZZ       YYY       YYZ       YZZ       ZZZ
      1       O    8    0.0000   -0.0000    0.1508    0.0000   -0.0000   -0.0000   -0.0000    0.0908    0.0000    0.0712
      2       N    7    0.0000   -0.0000   -0.3809    0.0000    0.0000    0.0000   -0.0000   -0.0983   -0.0000   -0.1156

  MBIS Radial Moments:
   Center  Symbol  Z      [a0^2]      [a0^3]      [a0^4]
      1       O    8   10.652401   19.400565   42.476177
      2       N    7   12.041170   25.247229   63.215217

  MBIS Valence Widths: [a0]
   Center  Symbol  Z     Width
      1       O    8    0.374399
      2       N    7    0.434993

*** tstop() called on Mac.lan at Sun Aug 10 17:19:44 2025
Module time:
	user time   =       3.88 seconds =       0.06 minutes
	system time =       2.30 seconds =       0.04 minutes
	total time  =          0 seconds =       0.00 minutes
Total time:
	user time   =      19.95 seconds =       0.33 minutes
	system time =       4.86 seconds =       0.08 minutes
	total time  =          2 seconds =       0.03 minutes

    Psi4 stopped on: Sunday, 10 August 2025 05:19PM
    Psi4 wall time for execution: 0:00:02.40

*** Psi4 exiting successfully. Buy a developer a beer!
