                               Psi4 1.9.1 release

  ==> Input File <==

--------------------------------------------------------------------------
molecule {
0 2
C           0.000000           0.000000           0.000000
H           0.000000           0.000000           1.231484
}

set {
basis              cc-pvtz
reference          uks
maxiter            500
DAMPING_PERCENTAGE 1
E_CONVERGENCE      1.0E-8
D_CONVERGENCE      1.0E-8
DIIS_MAX_VECS      400
MBIS_MAXITER       8000
guess              read
}

E, wfn = energy('b3lyp', restart_file='last_wfn', return_wfn=True)
properties('b3lyp','MBIS_CHARGES', wfn=wfn)
wfn.to_file('last_wfn')
--------------------------------------------------------------------------

    Molecular point group: c2v
  Charge       = 0
  Multiplicity = 2
  Basis Set: CC-PVTZ
    Blend: CC-PVTZ
  Basis Set: (CC-PVTZ AUX)
    Blend: CC-PVTZ-JKFIT
  @DF-UKS Final Energy:   -38.49152944775287
    Total Energy =                        -38.4915294477528676
 Dipole X            :          0.0000000            0.0000000            0.0000000
 Dipole Y            :          0.0000000            0.0000000            0.0000000
 Dipole Z            :         -0.5687817            1.0650315            0.4962498
 Magnitude           :                                                    0.4962498
    Molecular point group: c2v

    Geometry (in Angstrom), charge = 0, multiplicity = 2:

       Center              X                  Y                   Z               Mass
    ------------   -----------------  -----------------  -----------------  -----------------
         C            0.000000000000     0.000000000000    -0.095413368408    12.000000000000
         H            0.000000000000     0.000000000000     1.136070631592     1.007825032230

  Charge       = 0
  Multiplicity = 2
  Basis Set: CC-PVTZ
    Blend: CC-PVTZ
  Basis Set: (CC-PVTZ AUX)
    Blend: CC-PVTZ-JKFIT

    Orbital Energies [Eh]
    ---------------------

    Alpha Occupied:

       1A1   -10.293585     2A1    -0.629923     3A1    -0.323161
       1B1    -0.261389

    Alpha Virtual:

       1B2    -0.148959     4A1     0.043308     5A1     0.277019
       2B1     0.290177     2B2     0.309874     6A1     0.333156
       7A1     0.443032     3B1     0.556713     3B2     0.559572
       1A2     0.654624     8A1     0.660361     9A1     0.931101
       4B1     0.999819     4B2     1.000384    10A1     1.274728
       5B1     1.918074     5B2     1.944444    11A1     2.107336
      12A1     2.280279     2A2     2.531664    13A1     2.535493
       6B1     2.582581     6B2     2.588076     7B1     2.639736
       7B2     2.642251    14A1     2.814872     3A2     2.895976
      15A1     2.909791     8B1     3.038204     8B2     3.049165
      16A1     3.112709     4A2     3.455526    17A1     3.456956
       9B2     3.748425     9B1     3.750812    18A1     4.104961
      10B1     4.423000    10B2     4.423400    19A1     4.514075
      20A1     7.086625

    Beta Occupied:

       1A1   -10.278668     2A1    -0.585366     3A1    -0.304992

    Beta Virtual:

       1B2    -0.132838     1B1    -0.086594     4A1     0.049985
       5A1     0.282736     2B2     0.317333     6A1     0.341873
       2B1     0.346103     7A1     0.460890     3B2     0.560591
       3B1     0.581825     8A1     0.697825     1A2     0.698146
       9A1     0.944293     4B2     1.001782     4B1     1.021485
      10A1     1.282515     5B2     1.955692     5B1     1.999581
      11A1     2.118553    12A1     2.290578     2A2     2.562125
      13A1     2.562261     6B2     2.591174     6B1     2.622931
       7B2     2.698414     7B1     2.699140    14A1     2.834015
       3A2     2.974260    15A1     2.977004     8B2     3.054088
       8B1     3.095019    16A1     3.129464     4A2     3.464220
      17A1     3.464553     9B2     3.743815     9B1     3.751752
      18A1     4.114841    10B2     4.423515    10B1     4.444330
      19A1     4.517553    20A1     7.103301

    Final Occupation by Irrep:
             A1    A2    B1    B2
    DOCC [     3,    0,    0,    0 ]
    SOCC [     0,    0,    1,    0 ]
    NA   [     3,    0,    1,    0 ]
    NB   [     3,    0,    0,    0 ]

  @DF-UKS Final Energy:   -38.49152944773070

   => Energetics <=

    Nuclear Repulsion Energy =              2.5782415882138947
    One-Electron Energy =                 -56.1979348902840883
    Two-Electron Energy =                  19.6484352403634297
    DFT Exchange-Correlation Energy =      -4.5202713860239374
    Empirical Dispersion Energy =           0.0000000000000000
    VV10 Nonlocal Energy =                  0.0000000000000000
    Total Energy =                        -38.4915294477306986

  UHF NO Occupations:
  HONO-2 :    2 A1 1.9997742
  HONO-1 :    3 A1 1.9986436
  HONO-0 :    1 B1 1.0000000
  LUNO+0 :    4 A1 0.0013564
  LUNO+1 :    5 A1 0.0002258
  LUNO+2 :    6 A1 0.0000007
  LUNO+3 :    7 A1 0.0000000

Computation Completed

Properties will be evaluated at   0.000000,   0.000000,   0.000000 [a0]

Properties computed using the B3LYP density matrix

 Multipole Moments:

 ------------------------------------------------------------------------------------
     Multipole            Electronic (a.u.)      Nuclear  (a.u.)        Total (a.u.)
 ------------------------------------------------------------------------------------

 L = 1.  Multiply by 2.5417464519 to convert [e a0] to [Debye]
 Dipole X            :          0.0000000            0.0000000            0.0000000
 Dipole Y            :          0.0000000            0.0000000            0.0000000
 Dipole Z            :         -0.5687817            1.0650315            0.4962498
 Magnitude           :                                                    0.4962498

 L = 2.  Multiply by 1.3450342976 to convert [e a0^2] to [Debye ang]
 Quadrupole XX       :         -5.7768478            0.0000000           -5.7768478
 Quadrupole XY       :          0.0000000            0.0000000            0.0000000
 Quadrupole XZ       :          0.0000000            0.0000000            0.0000000
 Quadrupole YY       :         -4.2887609            0.0000000           -4.2887609
 Quadrupole YZ       :          0.0000000            0.0000000            0.0000000
 Quadrupole ZZ       :        -10.4120042            4.8040776           -5.6079266
 Traceless XX        :          1.0490232           -1.6013592           -0.5523361
 Traceless YY        :          2.5371101           -1.6013592            0.9357509
 Traceless ZZ        :         -3.5861332            3.2027184           -0.3834148

 ------------------------------------------------------------------------------------
  ==> Computing MBIS Charges <==

  Electron Count from Grid (Expected Number):  7.00000 ( 7.00000)
  Difference:  0.00000

  MBIS Charges: (a.u.)
   Center  Symbol  Z      Pop.       Charge
      1       C    6    6.061008   -0.061008
      2       H    1    0.938992    0.061008

  MBIS Dipoles: [e a0]
   Center  Symbol  Z        X           Y           Z
      1       C    6    0.000000   -0.000000    0.298648
      2       H    1    0.000000   -0.000000    0.055627

  MBIS Quadrupoles: [e a0^2]
   Center  Symbol  Z      XX        XY        XZ        YY        YZ        ZZ
      1       C    6   -5.1188    0.0000   -0.0000   -3.7055   -0.0000   -5.3674
      2       H    1   -0.6581   -0.0000    0.0000   -0.5832   -0.0000   -0.6508

  MBIS Octupoles: [e a0^3]
   Center  Symbol  Z      XXX       XXY       XXZ       XYY       XYZ       XZZ       YYY       YYZ       YZZ       ZZZ
      1       C    6    0.0000   -0.0000    0.3867    0.0000   -0.0000    0.0000   -0.0000    0.3860   -0.0000    0.6973
      2       H    1   -0.0000   -0.0000   -0.0005    0.0000   -0.0000    0.0000   -0.0000   -0.0510   -0.0000   -0.0284

  MBIS Radial Moments:
   Center  Symbol  Z      [a0^2]      [a0^3]      [a0^4]
      1       C    6   14.191740   35.421429   105.775990
      2       H    1    1.892148    3.858826    9.488677

  MBIS Valence Widths: [a0]
   Center  Symbol  Z     Width
      1       C    6    0.523882
      2       H    1    0.412094

*** tstop() called on Mac.lan at Sun Aug 10 17:09:11 2025
Module time:
	user time   =       3.00 seconds =       0.05 minutes
	system time =       1.89 seconds =       0.03 minutes
	total time  =          1 seconds =       0.02 minutes
Total time:
	user time   =      11.28 seconds =       0.19 minutes
	system time =       4.27 seconds =       0.07 minutes
	total time  =          2 seconds =       0.03 minutes

    Psi4 stopped on: Sunday, 10 August 2025 05:09PM
    Psi4 wall time for execution: 0:00:01.52

*** Psi4 exiting successfully. Buy a developer a beer!
