                               Psi4 1.9.1 release

  ==> Input File <==

--------------------------------------------------------------------------
molecule {
0 2
O           0.000000           0.000000           0.000000
H           0.000000           0.000000           0.996484
}

set {
basis              cc-pvtz
reference          uks
maxiter            500
DAMPING_PERCENTAGE 1
E_CONVERGENCE      1.0E-8
D_CONVERGENCE      1.0E-8
DIIS_MAX_VECS      400
MBIS_MAXITER       8000
guess              read
}

E, wfn = energy('b3lyp', restart_file='last_wfn', return_wfn=True)
properties('b3lyp','MBIS_CHARGES', wfn=wfn)
wfn.to_file('last_wfn')
--------------------------------------------------------------------------

    Molecular point group: c2v
  Charge       = 0
  Multiplicity = 2
  Basis Set: CC-PVTZ
    Blend: CC-PVTZ
  Basis Set: (CC-PVTZ AUX)
    Blend: CC-PVTZ-JKFIT
  @DF-UKS Final Energy:   -75.76373713725306
    Total Energy =                        -75.7637371372530453
 Dipole X            :          0.0000000            0.0000000            0.0000000
 Dipole Y            :          0.0000000            0.0000000            0.0000000
 Dipole Z            :         -0.2106711            0.8785171            0.6678460
 Magnitude           :                                                    0.6678460
    Molecular point group: c2v

    Geometry (in Angstrom), charge = 0, multiplicity = 2:

       Center              X                  Y                   Z               Mass
    ------------   -----------------  -----------------  -----------------  -----------------
         O            0.000000000000     0.000000000000    -0.059065864677    15.994914619570
         H            0.000000000000     0.000000000000     0.937418135323     1.007825032230

  Charge       = 0
  Multiplicity = 2
  Basis Set: CC-PVTZ
    Blend: CC-PVTZ
  Basis Set: (CC-PVTZ AUX)
    Blend: CC-PVTZ-JKFIT

    Orbital Energies [Eh]
    ---------------------

    Alpha Occupied:

       1A1   -19.198052     2A1    -1.011810     3A1    -0.473934
       1B1    -0.415953     1B2    -0.343084

    Alpha Virtual:

       4A1     0.024244     5A1     0.354949     6A1     0.519000
       2B1     0.526103     2B2     0.561382     3B1     0.686331
       3B2     0.701957     7A1     0.878661     8A1     1.222193
       1A2     1.420333     9A1     1.420789     4B1     1.717340
       4B2     1.755768    10A1     1.896613    11A1     2.405597
       2A2     3.177179    12A1     3.177331     5B1     3.298119
       5B2     3.335372     6B1     3.601878     6B2     3.628691
      13A1     3.646250     7B1     4.001701     7B2     4.036147
      14A1     4.241280    15A1     4.668271     8B1     5.069910
       8B2     5.070168     3A2     5.313640    16A1     5.314357
      17A1     6.136928     4A2     6.137447     9B1     6.206433
       9B2     6.262345    18A1     6.297890    10B1     6.517537
      10B2     6.564340    19A1     6.933353    20A1     9.928793

    Beta Occupied:

       1A1   -19.172645     2A1    -0.940806     3A1    -0.448877
       1B2    -0.317504

    Beta Virtual:

       1B1    -0.168853     4A1     0.031111     5A1     0.360692
       6A1     0.527159     2B2     0.571554     2B1     0.598112
       3B2     0.701021     3B1     0.701315     7A1     0.908027
       8A1     1.232773     1A2     1.472466     9A1     1.478429
       4B2     1.761883     4B1     1.767517    10A1     1.910361
      11A1     2.411648     2A2     3.181871    12A1     3.182491
       5B2     3.341673     5B1     3.355827     6B2     3.631567
       6B1     3.641465    13A1     3.650334     7B2     4.042323
       7B1     4.048831    14A1     4.262285    15A1     4.697601
       8B2     5.140049     8B1     5.143038     3A2     5.359029
      16A1     5.364072     4A2     6.229383    17A1     6.243764
       9B2     6.275609     9B1     6.294742    18A1     6.322800
      10B2     6.571761    10B1     6.578203    19A1     6.962639
      20A1     9.963983

    Final Occupation by Irrep:
             A1    A2    B1    B2
    DOCC [     3,    0,    0,    1 ]
    SOCC [     0,    0,    1,    0 ]
    NA   [     3,    0,    1,    1 ]
    NB   [     3,    0,    0,    1 ]

  @DF-UKS Final Energy:   -75.76373713707972

   => Energetics <=

    Nuclear Repulsion Energy =              4.2483549011925934
    One-Electron Energy =                -112.5383909865766157
    Two-Electron Energy =                  39.7097813593291065
    DFT Exchange-Correlation Energy =      -7.1834824110248015
    Empirical Dispersion Energy =           0.0000000000000000
    VV10 Nonlocal Energy =                  0.0000000000000000
    Total Energy =                        -75.7637371370797013

  UHF NO Occupations:
  HONO-2 :    2 A1 1.9997122
  HONO-1 :    3 A1 1.9992990
  HONO-0 :    1 B1 1.0000000
  LUNO+0 :    4 A1 0.0007010
  LUNO+1 :    5 A1 0.0002878
  LUNO+2 :    2 B2 0.0001562
  LUNO+3 :    6 A1 0.0000006

Computation Completed

Properties will be evaluated at   0.000000,   0.000000,   0.000000 [a0]

Properties computed using the B3LYP density matrix

 Multipole Moments:

 ------------------------------------------------------------------------------------
     Multipole            Electronic (a.u.)      Nuclear  (a.u.)        Total (a.u.)
 ------------------------------------------------------------------------------------

 L = 1.  Multiply by 2.5417464519 to convert [e a0] to [Debye]
 Dipole X            :          0.0000000            0.0000000            0.0000000
 Dipole Y            :          0.0000000            0.0000000            0.0000000
 Dipole Z            :         -0.2106711            0.8785171            0.6678460
 Magnitude           :                                                    0.6678460

 L = 2.  Multiply by 1.3450342976 to convert [e a0^2] to [Debye ang]
 Quadrupole XX       :         -4.0250612            0.0000000           -4.0250612
 Quadrupole XY       :          0.0000000            0.0000000            0.0000000
 Quadrupole XZ       :          0.0000000            0.0000000            0.0000000
 Quadrupole YY       :         -4.9203329            0.0000000           -4.9203329
 Quadrupole YZ       :          0.0000000            0.0000000            0.0000000
 Quadrupole ZZ       :         -6.4696080            3.2377522           -3.2318557
 Traceless XX        :          1.1132728           -1.0792507            0.0340221
 Traceless YY        :          0.2180012           -1.0792507           -0.8612496
 Traceless ZZ        :         -1.3312740            2.1585015            0.8272275

 ------------------------------------------------------------------------------------
  ==> Computing MBIS Charges <==

  Electron Count from Grid (Expected Number):  9.00000 ( 9.00000)
  Difference: -0.00000

  MBIS Charges: (a.u.)
   Center  Symbol  Z      Pop.       Charge
      1       O    8    8.374567   -0.374567
      2       H    1    0.625433    0.374567

  MBIS Dipoles: [e a0]
   Center  Symbol  Z        X           Y           Z
      1       O    8   -0.000000   -0.000000   -0.070016
      2       H    1    0.000000    0.000000    0.032522

  MBIS Quadrupoles: [e a0^2]
   Center  Symbol  Z      XX        XY        XZ        YY        YZ        ZZ
      1       O    8   -3.7119    0.0000    0.0000   -4.5687   -0.0000   -4.2125
      2       H    1   -0.3132   -0.0000    0.0000   -0.3516    0.0000   -0.3210

  MBIS Octupoles: [e a0^3]
   Center  Symbol  Z      XXX       XXY       XXZ       XYY       XYZ       XZZ       YYY       YYZ       YZZ       ZZZ
      1       O    8   -0.0000   -0.0000   -0.0606    0.0000   -0.0000    0.0000   -0.0000   -0.0749   -0.0000   -0.3620
      2       H    1    0.0000    0.0000   -0.0049    0.0000    0.0000    0.0000    0.0000    0.0112    0.0000    0.0225

  MBIS Radial Moments:
   Center  Symbol  Z      [a0^2]      [a0^3]      [a0^4]
      1       O    8   12.493073   24.010710   55.162148
      2       H    1    0.985784    1.778107    3.833968

  MBIS Valence Widths: [a0]
   Center  Symbol  Z     Width
      1       O    8    0.394780
      2       H    1    0.363363

*** tstop() called on Mac.lan at Sun Aug 10 17:10:19 2025
Module time:
	user time   =       2.73 seconds =       0.05 minutes
	system time =       2.10 seconds =       0.03 minutes
	total time  =          0 seconds =       0.00 minutes
Total time:
	user time   =      12.79 seconds =       0.21 minutes
	system time =       4.60 seconds =       0.08 minutes
	total time  =          2 seconds =       0.03 minutes

    Psi4 stopped on: Sunday, 10 August 2025 05:10PM
    Psi4 wall time for execution: 0:00:01.70

*** Psi4 exiting successfully. Buy a developer a beer!
