                               Psi4 1.9.1 release

  ==> Input File <==

--------------------------------------------------------------------------
molecule {
0 2
O           0.000000           0.000000           0.000000
H           0.000000           0.000000           1.121791
}

set {
basis              cc-pvtz
reference          uks
maxiter            500
DAMPING_PERCENTAGE 1
E_CONVERGENCE      1.0E-8
D_CONVERGENCE      1.0E-8
DIIS_MAX_VECS      400
MBIS_MAXITER       8000
guess              read
}

E, wfn = energy('b3lyp', restart_file='last_wfn', return_wfn=True)
properties('b3lyp','MBIS_CHARGES', wfn=wfn)
wfn.to_file('last_wfn')
--------------------------------------------------------------------------

    Molecular point group: c2v
  Charge       = 0
  Multiplicity = 2
  Basis Set: CC-PVTZ
    Blend: CC-PVTZ
  Basis Set: (CC-PVTZ AUX)
    Blend: CC-PVTZ-JKFIT
  @DF-UKS Final Energy:   -75.75034054794151
    Total Energy =                        -75.7503405479414909
 Dipole X            :          0.0000000            0.0000000            0.0000000
 Dipole Y            :          0.0000000            0.0000000            0.0000000
 Dipole Z            :         -0.3035145            0.9889898            0.6854754
 Magnitude           :                                                    0.6854754
    Molecular point group: c2v

    Geometry (in Angstrom), charge = 0, multiplicity = 2:

       Center              X                  Y                   Z               Mass
    ------------   -----------------  -----------------  -----------------  -----------------
         O            0.000000000000     0.000000000000    -0.066493346007    15.994914619570
         H            0.000000000000     0.000000000000     1.055297653993     1.007825032230

  Charge       = 0
  Multiplicity = 2
  Basis Set: CC-PVTZ
    Blend: CC-PVTZ
  Basis Set: (CC-PVTZ AUX)
    Blend: CC-PVTZ-JKFIT

    Orbital Energies [Eh]
    ---------------------

    Alpha Occupied:

       1A1   -19.205677     2A1    -0.985603     3A1    -0.455628
       1B1    -0.411757     1B2    -0.338635

    Alpha Virtual:

       4A1    -0.005346     5A1     0.302040     2B1     0.517457
       6A1     0.537149     2B2     0.550528     3B1     0.678378
       3B2     0.694075     7A1     0.902748     8A1     1.114318
       1A2     1.425846     9A1     1.426477     4B1     1.654865
       4B2     1.692976    10A1     2.020131    11A1     2.316480
       2A2     3.155699    12A1     3.155803     5B1     3.245293
       5B2     3.278924    13A1     3.472232     6B1     3.616995
       6B2     3.639386     7B1     3.860204     7B2     3.896933
      14A1     3.962302    15A1     4.772507     8B1     5.074160
       8B2     5.074413     3A2     5.204198    16A1     5.205548
       9B1     5.862091     9B2     5.911622    17A1     6.115133
      18A1     6.133470     4A2     6.133568    10B1     6.438839
      10B2     6.493331    19A1     6.812695    20A1     8.911814

    Beta Occupied:

       1A1   -19.179798     2A1    -0.911350     3A1    -0.432640
       1B2    -0.312767

    Beta Virtual:

       1B1    -0.163839     4A1     0.002778     5A1     0.304448
       6A1     0.546873     2B2     0.559013     2B1     0.582483
       3B2     0.693353     3B1     0.696389     7A1     0.934938
       8A1     1.121020     1A2     1.478033     9A1     1.484028
       4B2     1.699290     4B1     1.705590    10A1     2.036779
      11A1     2.314704     2A2     3.155219    12A1     3.155633
       5B2     3.283503     5B1     3.296103    13A1     3.478682
       6B2     3.637826     6B1     3.644189     7B2     3.904696
       7B1     3.916443    14A1     3.973708    15A1     4.799239
       8B2     5.144355     8B1     5.147354     3A2     5.250538
      16A1     5.255649     9B2     5.922155     9B1     5.932777
      17A1     6.141782     4A2     6.226179    18A1     6.240575
      10B2     6.505487    10B1     6.522087    19A1     6.849878
      20A1     8.947748

    Final Occupation by Irrep:
             A1    A2    B1    B2
    DOCC [     3,    0,    0,    1 ]
    SOCC [     0,    0,    1,    0 ]
    NA   [     3,    0,    1,    1 ]
    NB   [     3,    0,    0,    1 ]

  @DF-UKS Final Energy:   -75.75034054786607

   => Energetics <=

    Nuclear Repulsion Energy =              3.7738025045307011
    One-Electron Energy =                -111.6782677181102201
    Two-Electron Energy =                  39.2984132656828038
    DFT Exchange-Correlation Energy =      -7.1442885999693599
    Empirical Dispersion Energy =           0.0000000000000000
    VV10 Nonlocal Energy =                  0.0000000000000000
    Total Energy =                        -75.7503405478660596

  UHF NO Occupations:
  HONO-2 :    2 A1 1.9995389
  HONO-1 :    3 A1 1.9990852
  HONO-0 :    1 B1 1.0000000
  LUNO+0 :    4 A1 0.0009148
  LUNO+1 :    5 A1 0.0004611
  LUNO+2 :    2 B2 0.0001633
  LUNO+3 :    6 A1 0.0000006

Computation Completed

Properties will be evaluated at   0.000000,   0.000000,   0.000000 [a0]

Properties computed using the B3LYP density matrix

 Multipole Moments:

 ------------------------------------------------------------------------------------
     Multipole            Electronic (a.u.)      Nuclear  (a.u.)        Total (a.u.)
 ------------------------------------------------------------------------------------

 L = 1.  Multiply by 2.5417464519 to convert [e a0] to [Debye]
 Dipole X            :          0.0000000            0.0000000            0.0000000
 Dipole Y            :          0.0000000            0.0000000            0.0000000
 Dipole Z            :         -0.3035145            0.9889898            0.6854754
 Magnitude           :                                                    0.6854754

 L = 2.  Multiply by 1.3450342976 to convert [e a0^2] to [Debye ang]
 Quadrupole XX       :         -4.1132716            0.0000000           -4.1132716
 Quadrupole XY       :          0.0000000            0.0000000            0.0000000
 Quadrupole XZ       :          0.0000000            0.0000000            0.0000000
 Quadrupole YY       :         -5.0113214            0.0000000           -5.0113214
 Quadrupole YZ       :          0.0000000            0.0000000            0.0000000
 Quadrupole ZZ       :         -7.1401801            4.1032394           -3.0369407
 Traceless XX        :          1.3083194           -1.3677465           -0.0594270
 Traceless YY        :          0.4102697           -1.3677465           -0.9574768
 Traceless ZZ        :         -1.7185891            2.7354929            1.0169038

 ------------------------------------------------------------------------------------
  ==> Computing MBIS Charges <==

  Electron Count from Grid (Expected Number):  9.00000 ( 9.00000)
  Difference:  0.00000

  MBIS Charges: (a.u.)
   Center  Symbol  Z      Pop.       Charge
      1       O    8    8.347634   -0.347634
      2       H    1    0.652366    0.347634

  MBIS Dipoles: [e a0]
   Center  Symbol  Z        X           Y           Z
      1       O    8   -0.000000   -0.000000   -0.093532
      2       H    1    0.000000    0.000000    0.042065

  MBIS Quadrupoles: [e a0^2]
   Center  Symbol  Z      XX        XY        XZ        YY        YZ        ZZ
      1       O    8   -3.7272   -0.0000    0.0000   -4.5840   -0.0000   -4.2209
      2       H    1   -0.3861   -0.0000   -0.0000   -0.4273    0.0000   -0.3843

  MBIS Octupoles: [e a0^3]
   Center  Symbol  Z      XXX       XXY       XXZ       XYY       XYZ       XZZ       YYY       YYZ       YZZ       ZZZ
      1       O    8   -0.0000   -0.0000   -0.1057    0.0000   -0.0000    0.0000   -0.0000   -0.1063   -0.0000   -0.4663
      2       H    1    0.0000   -0.0000   -0.0033    0.0000    0.0000    0.0000   -0.0000    0.0210   -0.0000    0.0430

  MBIS Radial Moments:
   Center  Symbol  Z      [a0^2]      [a0^3]      [a0^4]
      1       O    8   12.532158   24.177833   55.751225
      2       H    1    1.197683    2.327016    5.407568

  MBIS Valence Widths: [a0]
   Center  Symbol  Z     Width
      1       O    8    0.396314
      2       H    1    0.392515

*** tstop() called on Mac.lan at Sun Aug 10 17:11:25 2025
Module time:
	user time   =       3.87 seconds =       0.06 minutes
	system time =       2.16 seconds =       0.04 minutes
	total time  =          1 seconds =       0.02 minutes
Total time:
	user time   =      13.87 seconds =       0.23 minutes
	system time =       4.34 seconds =       0.07 minutes
	total time  =          2 seconds =       0.03 minutes

    Psi4 stopped on: Sunday, 10 August 2025 05:11PM
    Psi4 wall time for execution: 0:00:01.80

*** Psi4 exiting successfully. Buy a developer a beer!
