                               Psi4 1.9.1 release

  ==> Input File <==

--------------------------------------------------------------------------
molecule {
0 2
N           0.000000           0.000000           0.000000
C           0.000000           0.000000           0.719027
}

set {
basis              cc-pvtz
reference          uks
maxiter            500
DAMPING_PERCENTAGE 1
E_CONVERGENCE      1.0E-8
D_CONVERGENCE      1.0E-8
DIIS_MAX_VECS      400
MBIS_MAXITER       8000
guess              read
}

E, wfn = energy('b3lyp', restart_file='last_wfn', return_wfn=True)
properties('b3lyp','MBIS_CHARGES', wfn=wfn)
wfn.to_file('last_wfn')
--------------------------------------------------------------------------

    Molecular point group: c2v
  Charge       = 0
  Multiplicity = 2
  Basis Set: CC-PVTZ
    Blend: CC-PVTZ
  Basis Set: (CC-PVTZ AUX)
    Blend: CC-PVTZ-JKFIT
  @DF-UKS Final Energy:   -91.52166073236737
    Total Energy =                        -91.5216607323673657
 Dipole X            :          0.0000000            0.0000000            0.0000000
 Dipole Y            :          0.0000000            0.0000000            0.0000000
 Dipole Z            :          0.8340727            0.0009638            0.8350365
 Magnitude           :                                                    0.8350365
    Molecular point group: c2v

    Geometry (in Angstrom), charge = 0, multiplicity = 2:

       Center              X                  Y                   Z               Mass
    ------------   -----------------  -----------------  -----------------  -----------------
         N            0.000000000000     0.000000000000    -0.331819384067    14.003074004430
         C            0.000000000000     0.000000000000     0.387207615933    12.000000000000

  Charge       = 0
  Multiplicity = 2
  Basis Set: CC-PVTZ
    Blend: CC-PVTZ
  Basis Set: (CC-PVTZ AUX)
    Blend: CC-PVTZ-JKFIT

    Orbital Energies [Eh]
    ---------------------

    Alpha Occupied:

       1A1   -14.261420     2A1   -10.224071     3A1    -0.977278
       1B2    -0.553519     1B1    -0.553519     4A1    -0.438336
       5A1    -0.331858

    Alpha Virtual:

       2B1     0.140202     2B2     0.140202     6A1     0.190567
       7A1     0.230335     3B1     0.299118     3B2     0.299118
       8A1     0.482182     4B1     0.575767     4B2     0.575767
       1A2     0.620197     9A1     0.620197    10A1     0.844543
       5B1     1.034558     5B2     1.034558    11A1     1.149991
       2A2     1.305419    12A1     1.305419     6B1     1.474938
       6B2     1.474938    13A1     1.554703     7B1     1.980709
       7B2     1.980709    14A1     2.277753    15A1     2.585598
       8B1     2.602901     8B2     2.602901     3A2     2.802236
      16A1     2.802236     9B1     2.896533     9B2     2.896533
      17A1     2.978575     4A2     3.016135    18A1     3.016135
      10B1     3.449236    10B2     3.449236    19A1     3.628237
      11B1     3.930212    11B2     3.930212    12B2     4.219414
      12B1     4.219414     5A2     4.566172    20A1     4.566172
      21A1     4.845964    13B1     5.378054    13B2     5.378054
      22A1     5.600747     6A2     5.600747    23A1     5.876036
      14B1     6.760640    14B2     6.760640    24A1     7.108628
      25A1     7.878872    26A1    19.227003

    Beta Occupied:

       1A1   -14.258144     2A1   -10.204972     3A1    -0.965335
       1B2    -0.540159     1B1    -0.540159     4A1    -0.329412

    Beta Virtual:

       5A1    -0.213751     2B1     0.155520     2B2     0.155520
       6A1     0.197826     7A1     0.277766     3B1     0.314981
       3B2     0.314981     8A1     0.497673     4B1     0.598987
       4B2     0.598987     1A2     0.634168     9A1     0.634168
      10A1     0.892172     5B1     1.057789     5B2     1.057789
      11A1     1.166295     2A2     1.308619    12A1     1.308619
       6B1     1.486635     6B2     1.486635    13A1     1.594386
       7B1     2.003512     7B2     2.003512    14A1     2.313463
       8B1     2.623289     8B2     2.623289    15A1     2.675128
       3A2     2.835416    16A1     2.835417     9B1     2.991146
       9B2     2.991146    17A1     3.052667     4A2     3.065017
      18A1     3.065020    10B1     3.460370    10B2     3.460370
      19A1     3.658169    11B1     3.957088    11B2     3.957088
      12B2     4.222421    12B1     4.222421     5A2     4.564741
      20A1     4.564742    21A1     4.863854    13B1     5.392936
      13B2     5.392936     6A2     5.613913    22A1     5.613914
      23A1     5.891238    14B1     6.786670    14B2     6.786670
      24A1     7.155007    25A1     7.890701    26A1    19.252751

    Final Occupation by Irrep:
             A1    A2    B1    B2
    DOCC [     4,    0,    1,    1 ]
    SOCC [     1,    0,    0,    0 ]
    NA   [     5,    0,    1,    1 ]
    NB   [     4,    0,    1,    1 ]

  @DF-UKS Final Energy:   -91.52166073280080

   => Energetics <=

    Nuclear Repulsion Energy =             30.9104426511661039
    One-Electron Energy =                -183.1582004784257833
    Two-Electron Energy =                  71.2061415739419772
    DFT Exchange-Correlation Energy =     -10.4800444794831051
    Empirical Dispersion Energy =           0.0000000000000000
    VV10 Nonlocal Energy =                  0.0000000000000000
    Total Energy =                        -91.5216607328007967

  UHF NO Occupations:
  HONO-2 :    1 B1 1.9993836
  HONO-1 :    1 B2 1.9993836
  HONO-0 :    5 A1 1.0000000
  LUNO+0 :    2 B1 0.0006164
  LUNO+1 :    2 B2 0.0006164
  LUNO+2 :    6 A1 0.0000749
  LUNO+3 :    7 A1 0.0000235

Computation Completed

Properties will be evaluated at   0.000000,   0.000000,   0.000000 [a0]

Properties computed using the B3LYP density matrix

 Multipole Moments:

 ------------------------------------------------------------------------------------
     Multipole            Electronic (a.u.)      Nuclear  (a.u.)        Total (a.u.)
 ------------------------------------------------------------------------------------

 L = 1.  Multiply by 2.5417464519 to convert [e a0] to [Debye]
 Dipole X            :          0.0000000            0.0000000            0.0000000
 Dipole Y            :          0.0000000            0.0000000            0.0000000
 Dipole Z            :          0.8340727            0.0009638            0.8350365
 Magnitude           :                                                    0.8350365

 L = 2.  Multiply by 1.3450342976 to convert [e a0^2] to [Debye ang]
 Quadrupole XX       :         -6.7068746            0.0000000           -6.7068746
 Quadrupole XY       :          0.0000000            0.0000000            0.0000000
 Quadrupole XZ       :          0.0000000            0.0000000            0.0000000
 Quadrupole YY       :         -6.7068746            0.0000000           -6.7068746
 Quadrupole YZ       :          0.0000000            0.0000000            0.0000000
 Quadrupole ZZ       :        -13.5279481            5.9647751           -7.5631730
 Traceless XX        :          2.2736912           -1.9882584            0.2854328
 Traceless YY        :          2.2736912           -1.9882584            0.2854328
 Traceless ZZ        :         -4.5473823            3.9765168           -0.5708656

 ------------------------------------------------------------------------------------
  ==> Computing MBIS Charges <==

  Electron Count from Grid (Expected Number): 13.00000 (13.00000)
  Difference: -0.00000

  MBIS Charges: (a.u.)
   Center  Symbol  Z      Pop.       Charge
      1       N    7    7.607418   -0.607418
      2       C    6    5.392581    0.607419

  MBIS Dipoles: [e a0]
   Center  Symbol  Z        X           Y           Z
      1       N    7   -0.000000   -0.000000   -0.035844
      2       C    6   -0.000000   -0.000000    0.045541

  MBIS Quadrupoles: [e a0^2]
   Center  Symbol  Z      XX        XY        XZ        YY        YZ        ZZ
      1       N    7   -3.9703    0.0000   -0.0000   -3.9703   -0.0000   -4.6553
      2       C    6   -2.7366    0.0000   -0.0000   -2.7366    0.0000   -3.1058

  MBIS Octupoles: [e a0^3]
   Center  Symbol  Z      XXX       XXY       XXZ       XYY       XYZ       XZZ       YYY       YYZ       YZZ       ZZZ
      1       N    7   -0.0000   -0.0000    0.1113   -0.0000    0.0000   -0.0000   -0.0000    0.1113    0.0000    0.7411
      2       C    6   -0.0000   -0.0000   -0.1471   -0.0000    0.0000   -0.0000   -0.0000   -0.1471    0.0000   -0.5989

  MBIS Radial Moments:
   Center  Symbol  Z      [a0^2]      [a0^3]      [a0^4]
      1       N    7   12.595862   26.033629   65.048504
      2       C    6    8.579046   18.445685   48.297428

  MBIS Valence Widths: [a0]
   Center  Symbol  Z     Width
      1       N    7    0.417996
      2       C    6    0.434297

*** tstop() called on Mac.lan at Sun Aug 10 17:13:39 2025
Module time:
	user time   =       7.04 seconds =       0.12 minutes
	system time =       3.98 seconds =       0.07 minutes
	total time  =          1 seconds =       0.02 minutes
Total time:
	user time   =      23.16 seconds =       0.39 minutes
	system time =       6.34 seconds =       0.11 minutes
	total time  =          3 seconds =       0.05 minutes

    Psi4 stopped on: Sunday, 10 August 2025 05:13PM
    Psi4 wall time for execution: 0:00:03.16

*** Psi4 exiting successfully. Buy a developer a beer!
