                               Psi4 1.9.1 release

  ==> Input File <==

--------------------------------------------------------------------------
molecule {
0 2
N           0.000000           0.000000           0.000000
C           0.000000           0.000000           1.338387
}

set {
basis              cc-pvtz
reference          uks
maxiter            500
DAMPING_PERCENTAGE 1
E_CONVERGENCE      1.0E-8
D_CONVERGENCE      1.0E-8
DIIS_MAX_VECS      400
MBIS_MAXITER       8000
guess              read
}

E, wfn = energy('b3lyp', restart_file='last_wfn', return_wfn=True)
properties('b3lyp','MBIS_CHARGES', wfn=wfn)
wfn.to_file('last_wfn')
--------------------------------------------------------------------------

    Molecular point group: c2v
  Charge       = 0
  Multiplicity = 2
  Basis Set: CC-PVTZ
    Blend: CC-PVTZ
  Basis Set: (CC-PVTZ AUX)
    Blend: CC-PVTZ-JKFIT
  @DF-UKS Final Energy:   -92.70305393965145
    Total Energy =                        -92.7030539396514399
 Dipole X            :          0.0000000            0.0000000            0.0000000
 Dipole Y            :          0.0000000            0.0000000            0.0000000
 Dipole Z            :          0.4263287            0.0017940            0.4281227
 Magnitude           :                                                    0.4281227
    Molecular point group: c2v

    Geometry (in Angstrom), charge = 0, multiplicity = 2:

       Center              X                  Y                   Z               Mass
    ------------   -----------------  -----------------  -----------------  -----------------
         N            0.000000000000     0.000000000000    -0.617644052286    14.003074004430
         C            0.000000000000     0.000000000000     0.720742947714    12.000000000000

  Charge       = 0
  Multiplicity = 2
  Basis Set: CC-PVTZ
    Blend: CC-PVTZ
  Basis Set: (CC-PVTZ AUX)
    Blend: CC-PVTZ-JKFIT

    Orbital Energies [Eh]
    ---------------------

    Alpha Occupied:

       1A1   -14.429603     2A1   -10.339398     3A1    -0.907290
       4A1    -0.537982     5A1    -0.412025     1B1    -0.363755
       1B2    -0.363755

    Alpha Virtual:

       2B1    -0.074103     2B2    -0.074103     6A1     0.157846
       7A1     0.283059     3B1     0.287864     3B2     0.287864
       8A1     0.393221     9A1     0.440691     4B1     0.504555
       4B2     0.504555     1A2     0.623740    10A1     0.623740
       5B2     0.760563     5B1     0.760563    11A1     0.869280
      12A1     1.107016     2A2     1.114205    13A1     1.114205
       6B1     1.433186     6B2     1.433186    14A1     1.657118
       7B1     1.965382     7B2     1.965382    15A1     2.129349
       8B1     2.624783     8B2     2.624783     3A2     2.642908
      16A1     2.642908     9B2     2.668854     9B1     2.668854
      17A1     2.842143    10B2     2.892935    10B1     2.892935
       4A2     2.902960    18A1     2.902962    19A1     2.952032
      11B1     3.283959    11B2     3.283959    20A1     3.455684
      12B2     3.884051    12B1     3.884051     5A2     4.174918
      21A1     4.174918    22A1     4.473353     6A2     4.473361
      23A1     4.621650    13B1     4.625565    13B2     4.625565
      24A1     5.092431    14B1     5.120527    14B2     5.120527
      25A1     5.382916    26A1     9.599979

    Beta Occupied:

       1A1   -14.422976     2A1   -10.326108     3A1    -0.881318
       4A1    -0.470133     1B1    -0.356252     1B2    -0.356252

    Beta Virtual:

       5A1    -0.255517     2B1    -0.055270     2B2    -0.055270
       6A1     0.167233     3B1     0.295575     3B2     0.295575
       7A1     0.317451     8A1     0.417342     9A1     0.482246
       4B1     0.505619     4B2     0.505619     1A2     0.631912
      10A1     0.631912     5B2     0.789219     5B1     0.789219
      11A1     0.882174     2A2     1.115348    12A1     1.115348
      13A1     1.141984     6B1     1.454560     6B2     1.454560
      14A1     1.685136     7B1     1.978010     7B2     1.978010
      15A1     2.178473     8B1     2.637421     8B2     2.637421
       3A2     2.664330    16A1     2.664330     9B2     2.690031
       9B1     2.690031    17A1     2.888854     4A2     2.928891
      18A1     2.928893    10B2     2.929516    10B1     2.929516
      19A1     3.013822    11B1     3.323463    11B2     3.323463
      20A1     3.500457    12B2     3.878891    12B1     3.878891
       5A2     4.183814    21A1     4.183814    22A1     4.474766
       6A2     4.474774    13B1     4.656519    13B2     4.656519
      23A1     4.663559    24A1     5.137766    14B1     5.150730
      14B2     5.150730    25A1     5.398770    26A1     9.618675

    Final Occupation by Irrep:
             A1    A2    B1    B2
    DOCC [     4,    0,    1,    1 ]
    SOCC [     1,    0,    0,    0 ]
    NA   [     5,    0,    1,    1 ]
    NB   [     4,    0,    1,    1 ]

  @DF-UKS Final Energy:   -92.70305393963505

   => Energetics <=

    Nuclear Repulsion Energy =             16.6061407112740937
    One-Electron Energy =                -157.4535028100673344
    Two-Electron Energy =                  57.8560598278651952
    DFT Exchange-Correlation Energy =      -9.7117516687070164
    Empirical Dispersion Energy =           0.0000000000000000
    VV10 Nonlocal Energy =                  0.0000000000000000
    Total Energy =                        -92.7030539396350548

  UHF NO Occupations:
  HONO-2 :    1 B1 1.9986540
  HONO-1 :    4 A1 1.9979177
  HONO-0 :    5 A1 1.0000000
  LUNO+0 :    6 A1 0.0020823
  LUNO+1 :    2 B1 0.0013460
  LUNO+2 :    2 B2 0.0013460
  LUNO+3 :    7 A1 0.0001623

Computation Completed

Properties will be evaluated at   0.000000,   0.000000,   0.000000 [a0]

Properties computed using the B3LYP density matrix

 Multipole Moments:

 ------------------------------------------------------------------------------------
     Multipole            Electronic (a.u.)      Nuclear  (a.u.)        Total (a.u.)
 ------------------------------------------------------------------------------------

 L = 1.  Multiply by 2.5417464519 to convert [e a0] to [Debye]
 Dipole X            :          0.0000000            0.0000000            0.0000000
 Dipole Y            :          0.0000000            0.0000000            0.0000000
 Dipole Z            :          0.4263288            0.0017940            0.4281228
 Magnitude           :                                                    0.4281228

 L = 2.  Multiply by 1.3450342976 to convert [e a0^2] to [Debye ang]
 Quadrupole XX       :         -8.5535432            0.0000000           -8.5535432
 Quadrupole XY       :          0.0000000            0.0000000            0.0000000
 Quadrupole XZ       :          0.0000000            0.0000000            0.0000000
 Quadrupole YY       :         -8.5535432            0.0000000           -8.5535432
 Quadrupole YZ       :          0.0000000            0.0000000            0.0000000
 Quadrupole ZZ       :        -28.3078200           20.6665078           -7.6413122
 Traceless XX        :          6.5847589           -6.8888359           -0.3040770
 Traceless YY        :          6.5847589           -6.8888359           -0.3040770
 Traceless ZZ        :        -13.1695179           13.7776719            0.6081540

 ------------------------------------------------------------------------------------
  ==> Computing MBIS Charges <==

  Electron Count from Grid (Expected Number): 13.00000 (13.00000)
  Difference:  0.00000

  MBIS Charges: (a.u.)
   Center  Symbol  Z      Pop.       Charge
      1       N    7    7.197721   -0.197721
      2       C    6    5.802280    0.197720

  MBIS Dipoles: [e a0]
   Center  Symbol  Z        X           Y           Z
      1       N    7    0.000000   -0.000000   -0.229298
      2       C    6   -0.000000    0.000000    0.157350

  MBIS Quadrupoles: [e a0^2]
   Center  Symbol  Z      XX        XY        XZ        YY        YZ        ZZ
      1       N    7   -4.3947   -0.0000   -0.0000   -4.3947    0.0000   -4.4490
      2       C    6   -4.1589    0.0000    0.0000   -4.1589    0.0000   -4.2536

  MBIS Octupoles: [e a0^3]
   Center  Symbol  Z      XXX       XXY       XXZ       XYY       XYZ       XZZ       YYY       YYZ       YZZ       ZZZ
      1       N    7   -0.0000   -0.0000   -0.3333   -0.0000    0.0000   -0.0000   -0.0000   -0.3333    0.0000   -0.8022
      2       C    6   -0.0000   -0.0000    0.2875   -0.0000   -0.0000    0.0000   -0.0000    0.2875   -0.0000    0.5797

  MBIS Radial Moments:
   Center  Symbol  Z      [a0^2]      [a0^3]      [a0^4]
      1       N    7   13.238382   28.484251   73.057430
      2       C    6   12.571330   30.177692   86.157681

  MBIS Valence Widths: [a0]
   Center  Symbol  Z     Width
      1       N    7    0.449523
      2       C    6    0.508417

*** tstop() called on Mac.lan at Sun Aug 10 17:14:06 2025
Module time:
	user time   =       3.81 seconds =       0.06 minutes
	system time =       2.38 seconds =       0.04 minutes
	total time  =          0 seconds =       0.00 minutes
Total time:
	user time   =      20.73 seconds =       0.35 minutes
	system time =       4.97 seconds =       0.08 minutes
	total time  =          2 seconds =       0.03 minutes

    Psi4 stopped on: Sunday, 10 August 2025 05:14PM
    Psi4 wall time for execution: 0:00:02.49

*** Psi4 exiting successfully. Buy a developer a beer!
