                               Psi4 1.9.1 release

  ==> Input File <==

--------------------------------------------------------------------------
molecule {
0 1
N           0.000000           0.000000           0.000000
N           0.000000           0.000000           1.536766
}

set {
basis              cc-pvtz
reference          uks
maxiter            500
DAMPING_PERCENTAGE 1
E_CONVERGENCE      1.0E-8
D_CONVERGENCE      1.0E-8
DIIS_MAX_VECS      400
MBIS_MAXITER       8000
guess              read
}

E, wfn = energy('b3lyp', restart_file='last_wfn', return_wfn=True)
properties('b3lyp','MBIS_CHARGES', wfn=wfn)
wfn.to_file('last_wfn')
--------------------------------------------------------------------------

    Molecular point group: d2h
  Charge       = 0
  Multiplicity = 1
  Basis Set: CC-PVTZ
    Blend: CC-PVTZ
  Basis Set: (CC-PVTZ AUX)
    Blend: CC-PVTZ-JKFIT
  @DF-UKS Final Energy:  -109.34664191511496
    Total Energy =                       -109.3466419151149580
 Dipole X            :          0.0000000            0.0000000            0.0000000
 Dipole Y            :          0.0000000            0.0000000            0.0000000
 Dipole Z            :          0.0000000            0.0000000            0.0000000
 Magnitude           :                                                    0.0000000
    Molecular point group: d2h

    Geometry (in Angstrom), charge = 0, multiplicity = 1:

       Center              X                  Y                   Z               Mass
    ------------   -----------------  -----------------  -----------------  -----------------
         N            0.000000000000     0.000000000000    -0.768383000000    14.003074004430
         N            0.000000000000     0.000000000000     0.768383000000    14.003074004430

  Charge       = 0
  Multiplicity = 1
  Basis Set: CC-PVTZ
    Blend: CC-PVTZ
  Basis Set: (CC-PVTZ AUX)
    Blend: CC-PVTZ-JKFIT

    Orbital Energies [Eh]
    ---------------------

    Alpha Occupied:

       1Ag   -14.496508     1B1u  -14.496338     2Ag    -0.916188
       2B1u   -0.658189     3Ag    -0.407066     1B2u   -0.371670
       1B3u   -0.371670

    Alpha Virtual:

       1B3g   -0.165244     1B2g   -0.165244     3B1u    0.057678
       4B1u    0.394589     2B2u    0.419598     2B3u    0.419598
       4Ag     0.446546     5Ag     0.497779     2B3g    0.501874
       2B2g    0.501874     5B1u    0.861513     6Ag     0.890018
       1B1g    0.890018     3B2u    0.896669     3B3u    0.896669
       1Au     1.133185     6B1u    1.133185     7Ag     1.436555
       3B3g    1.519753     3B2g    1.519753     7B1u    1.654462
       4B2u    2.676361     4B3u    2.676361     8Ag     2.734766
       4B3g    2.851401     4B2g    2.851401     8B1u    3.443187
       5B2u    3.506630     5B3u    3.506630     9Ag     3.564617
      10Ag     3.565322     2B1g    3.565322     6B2u    3.776452
       6B3u    3.776452     5B2g    3.869719     5B3g    3.869719
       9B1u    4.114680     2Au     4.114682    11Ag     4.319294
       3B1g    4.319303     6B2g    4.419956     6B3g    4.419956
      10B1u    4.472237     3Au     4.472245     7B3u    4.495873
       7B2u    4.495873    11B1u    4.566205    12B1u    4.822002
      12Ag     4.920800     7B2g    5.133280     7B3g    5.133280
      13Ag     5.573353    13B1u    7.376742

    Beta Occupied:

       1Ag   -14.496508     1B1u  -14.496338     2Ag    -0.916188
       2B1u   -0.658189     3Ag    -0.407066     1B2u   -0.371670
       1B3u   -0.371670

    Beta Virtual:

       1B3g   -0.165244     1B2g   -0.165244     3B1u    0.057678
       4B1u    0.394589     2B2u    0.419598     2B3u    0.419598
       4Ag     0.446546     5Ag     0.497779     2B3g    0.501874
       2B2g    0.501874     5B1u    0.861513     6Ag     0.890018
       1B1g    0.890018     3B2u    0.896669     3B3u    0.896669
       1Au     1.133185     6B1u    1.133185     7Ag     1.436555
       3B3g    1.519753     3B2g    1.519753     7B1u    1.654462
       4B2u    2.676361     4B3u    2.676361     8Ag     2.734766
       4B3g    2.851401     4B2g    2.851401     8B1u    3.443187
       5B2u    3.506630     5B3u    3.506630     9Ag     3.564617
      10Ag     3.565322     2B1g    3.565322     6B2u    3.776452
       6B3u    3.776452     5B2g    3.869719     5B3g    3.869719
       9B1u    4.114680     2Au     4.114682    11Ag     4.319294
       3B1g    4.319303     6B2g    4.419956     6B3g    4.419956
      10B1u    4.472237     3Au     4.472245     7B3u    4.495873
       7B2u    4.495873    11B1u    4.566205    12B1u    4.822002
      12Ag     4.920800     7B2g    5.133280     7B3g    5.133280
      13Ag     5.573353    13B1u    7.376742

    Final Occupation by Irrep:
             Ag   B1g   B2g   B3g    Au   B1u   B2u   B3u
    DOCC [     3,    0,    0,    0,    0,    2,    1,    1 ]
    SOCC [     0,    0,    0,    0,    0,    0,    0,    0 ]
    NA   [     3,    0,    0,    0,    0,    2,    1,    1 ]
    NB   [     3,    0,    0,    0,    0,    2,    1,    1 ]

  @DF-UKS Final Energy:  -109.34664191531529

   => Energetics <=

    Nuclear Repulsion Energy =             16.8728897716568440
    One-Electron Energy =                -181.2191029858649927
    Two-Electron Energy =                  65.8044185643944672
    DFT Exchange-Correlation Energy =     -10.8048472655016088
    Empirical Dispersion Energy =           0.0000000000000000
    VV10 Nonlocal Energy =                  0.0000000000000000
    Total Energy =                       -109.3466419153152884

  UHF NO Occupations:
  HONO-2 :    3 Ag 2.0000000
  HONO-1 :    1B2u 2.0000000
  HONO-0 :    1B3u 2.0000000
  LUNO+0 :    3B1u 0.0000000
  LUNO+1 :    4B1u 0.0000000
  LUNO+2 :    2B3u 0.0000000
  LUNO+3 :    4 Ag 0.0000000

Computation Completed

Properties will be evaluated at   0.000000,   0.000000,   0.000000 [a0]

Properties computed using the B3LYP density matrix

 Multipole Moments:

 ------------------------------------------------------------------------------------
     Multipole            Electronic (a.u.)      Nuclear  (a.u.)        Total (a.u.)
 ------------------------------------------------------------------------------------

 L = 1.  Multiply by 2.5417464519 to convert [e a0] to [Debye]
 Dipole X            :          0.0000000            0.0000000            0.0000000
 Dipole Y            :          0.0000000            0.0000000            0.0000000
 Dipole Z            :          0.0000000            0.0000000            0.0000000
 Magnitude           :                                                    0.0000000

 L = 2.  Multiply by 1.3450342976 to convert [e a0^2] to [Debye ang]
 Quadrupole XX       :         -8.2819783            0.0000000           -8.2819783
 Quadrupole XY       :          0.0000000            0.0000000            0.0000000
 Quadrupole XZ       :          0.0000000            0.0000000            0.0000000
 Quadrupole YY       :         -8.2819783            0.0000000           -8.2819783
 Quadrupole YZ       :          0.0000000            0.0000000            0.0000000
 Quadrupole ZZ       :        -37.9612792           29.5176151           -8.4436641
 Traceless XX        :          9.8931003           -9.8392050            0.0538953
 Traceless YY        :          9.8931003           -9.8392050            0.0538953
 Traceless ZZ        :        -19.7862006           19.6784101           -0.1077906

 ------------------------------------------------------------------------------------
  ==> Computing MBIS Charges <==

  Electron Count from Grid (Expected Number): 14.00000 (14.00000)
  Difference: -0.00000

  MBIS Charges: (a.u.)
   Center  Symbol  Z      Pop.       Charge
      1       N    7    7.000000    0.000000
      2       N    7    7.000000    0.000000

  MBIS Dipoles: [e a0]
   Center  Symbol  Z        X           Y           Z
      1       N    7   -0.000000   -0.000000   -0.052540
      2       N    7   -0.000000   -0.000000    0.052540

  MBIS Quadrupoles: [e a0^2]
   Center  Symbol  Z      XX        XY        XZ        YY        YZ        ZZ
      1       N    7   -4.1410   -0.0000   -0.0000   -4.1410   -0.0000   -4.3744
      2       N    7   -4.1410   -0.0000    0.0000   -4.1410    0.0000   -4.3744

  MBIS Octupoles: [e a0^3]
   Center  Symbol  Z      XXX       XXY       XXZ       XYY       XYZ       XZZ       YYY       YYZ       YZZ       ZZZ
      1       N    7   -0.0000    0.0000   -0.2118   -0.0000    0.0000   -0.0000   -0.0000   -0.2118    0.0000   -0.4635
      2       N    7   -0.0000    0.0000    0.2118    0.0000   -0.0000    0.0000   -0.0000    0.2118    0.0000    0.4635

  MBIS Radial Moments:
   Center  Symbol  Z      [a0^2]      [a0^3]      [a0^4]
      1       N    7   12.656390   27.087719   68.981949
      2       N    7   12.656390   27.087719   68.981949

  MBIS Valence Widths: [a0]
   Center  Symbol  Z     Width
      1       N    7    0.447840
      2       N    7    0.447840

*** tstop() called on Mac.lan at Sun Aug 10 17:07:45 2025
Module time:
	user time   =       3.58 seconds =       0.06 minutes
	system time =       2.08 seconds =       0.03 minutes
	total time  =          1 seconds =       0.02 minutes
Total time:
	user time   =      15.00 seconds =       0.25 minutes
	system time =       3.97 seconds =       0.07 minutes
	total time  =          2 seconds =       0.03 minutes

    Psi4 stopped on: Sunday, 10 August 2025 05:07PM
    Psi4 wall time for execution: 0:00:01.85

*** Psi4 exiting successfully. Buy a developer a beer!
