                               Psi4 1.9.1 release

  ==> Input File <==

--------------------------------------------------------------------------
molecule {
0 1
H           0.000000           0.000000           0.000000
H           0.000000           0.000000           0.991497
}

set {
basis              cc-pvtz
reference          uks
maxiter            500
DAMPING_PERCENTAGE 1
E_CONVERGENCE      1.0E-8
D_CONVERGENCE      1.0E-8
DIIS_MAX_VECS      400
MBIS_MAXITER       8000
guess              read
}

E, wfn = energy('b3lyp', restart_file='last_wfn', return_wfn=True)
properties('b3lyp','MBIS_CHARGES', wfn=wfn)
wfn.to_file('last_wfn')
--------------------------------------------------------------------------

    Molecular point group: d2h
  Charge       = 0
  Multiplicity = 1
  Basis Set: CC-PVTZ
    Blend: CC-PVTZ
  Basis Set: (CC-PVTZ AUX)
    Blend: CC-PVTZ-JKFIT
  @DF-UKS Final Energy:    -1.15439138989559
    Total Energy =                         -1.1543913898955893
 Dipole X            :          0.0000000            0.0000000            0.0000000
 Dipole Y            :          0.0000000            0.0000000            0.0000000
 Dipole Z            :          0.0000000            0.0000000            0.0000000
 Magnitude           :                                                    0.0000000
    Molecular point group: d2h

    Geometry (in Angstrom), charge = 0, multiplicity = 1:

       Center              X                  Y                   Z               Mass
    ------------   -----------------  -----------------  -----------------  -----------------
         H            0.000000000000     0.000000000000    -0.495748500000     1.007825032230
         H            0.000000000000     0.000000000000     0.495748500000     1.007825032230

  Charge       = 0
  Multiplicity = 1
  Basis Set: CC-PVTZ
    Blend: CC-PVTZ
  Basis Set: (CC-PVTZ AUX)
    Blend: CC-PVTZ-JKFIT

    Orbital Energies [Eh]
    ---------------------

    Alpha Occupied:

       1Ag    -0.390545

    Alpha Virtual:

       1B1u    0.004966     2Ag     0.212722     2B1u    0.385052
       1B3u    0.496418     1B2u    0.496418     3Ag     0.822024
       1B2g    0.879346     1B3g    0.879346     3B1u    1.295105
       4Ag     2.202473     4B1u    2.273582     5Ag     2.926705
       1B1g    2.926705     2B3u    2.933305     2B2u    2.933305
       6Ag     3.138435     5B1u    3.550557     1Au     3.550557
       3B2u    3.635708     3B3u    3.635708     2B3g    3.692854
       2B2g    3.692854     6B1u    3.817075     3B2g    4.628308
       3B3g    4.628308     7Ag     4.682885     7B1u    5.883672

    Beta Occupied:

       1Ag    -0.390545

    Beta Virtual:

       1B1u    0.004966     2Ag     0.212722     2B1u    0.385052
       1B3u    0.496418     1B2u    0.496418     3Ag     0.822024
       1B3g    0.879346     1B2g    0.879346     3B1u    1.295105
       4Ag     2.202473     4B1u    2.273582     5Ag     2.926705
       1B1g    2.926705     2B3u    2.933305     2B2u    2.933305
       6Ag     3.138435     5B1u    3.550557     1Au     3.550557
       3B2u    3.635708     3B3u    3.635708     2B2g    3.692854
       2B3g    3.692854     6B1u    3.817075     3B2g    4.628308
       3B3g    4.628308     7Ag     4.682885     7B1u    5.883672

    Final Occupation by Irrep:
             Ag   B1g   B2g   B3g    Au   B1u   B2u   B3u
    DOCC [     1,    0,    0,    0,    0,    0,    0,    0 ]
    SOCC [     0,    0,    0,    0,    0,    0,    0,    0 ]
    NA   [     1,    0,    0,    0,    0,    0,    0,    0 ]
    NB   [     1,    0,    0,    0,    0,    0,    0,    0 ]

  @DF-UKS Final Energy:    -1.15439138979963

   => Energetics <=

    Nuclear Repulsion Energy =              0.5337153926537347
    One-Electron Energy =                  -2.2192454020980019
    Two-Electron Energy =                   1.0496029544793493
    DFT Exchange-Correlation Energy =      -0.5184643348347078
    Empirical Dispersion Energy =           0.0000000000000000
    VV10 Nonlocal Energy =                  0.0000000000000000
    Total Energy =                         -1.1543913897996256

  UHF NO Occupations:
  HONO-0 :    1 Ag 2.0000000
  LUNO+0 :    2 Ag 0.0000000
  LUNO+1 :    3 Ag 0.0000000
  LUNO+2 :    4 Ag 0.0000000
  LUNO+3 :    5 Ag 0.0000000

Computation Completed

Properties will be evaluated at   0.000000,   0.000000,   0.000000 [a0]

Properties computed using the B3LYP density matrix

 Multipole Moments:

 ------------------------------------------------------------------------------------
     Multipole            Electronic (a.u.)      Nuclear  (a.u.)        Total (a.u.)
 ------------------------------------------------------------------------------------

 L = 1.  Multiply by 2.5417464519 to convert [e a0] to [Debye]
 Dipole X            :          0.0000000            0.0000000            0.0000000
 Dipole Y            :          0.0000000            0.0000000            0.0000000
 Dipole Z            :          0.0000000            0.0000000            0.0000000
 Magnitude           :                                                    0.0000000

 L = 2.  Multiply by 1.3450342976 to convert [e a0^2] to [Debye ang]
 Quadrupole XX       :         -1.8121561            0.0000000           -1.8121561
 Quadrupole XY       :          0.0000000            0.0000000            0.0000000
 Quadrupole XZ       :          0.0000000            0.0000000            0.0000000
 Quadrupole YY       :         -1.8121561            0.0000000           -1.8121561
 Quadrupole YZ       :          0.0000000            0.0000000            0.0000000
 Quadrupole ZZ       :         -2.8980339            1.7552967           -1.1427371
 Traceless XX        :          0.3619593           -0.5850989           -0.2231396
 Traceless YY        :          0.3619593           -0.5850989           -0.2231396
 Traceless ZZ        :         -0.7239186            1.1701978            0.4462793

 ------------------------------------------------------------------------------------
  ==> Computing MBIS Charges <==

  Electron Count from Grid (Expected Number):  2.00000 ( 2.00000)
  Difference: -0.00000

  MBIS Charges: (a.u.)
   Center  Symbol  Z      Pop.       Charge
      1       H    1    1.000000    0.000000
      2       H    1    1.000000    0.000000

  MBIS Dipoles: [e a0]
   Center  Symbol  Z        X           Y           Z
      1       H    1   -0.000000    0.000000   -0.129416
      2       H    1   -0.000000    0.000000    0.129416

  MBIS Quadrupoles: [e a0^2]
   Center  Symbol  Z      XX        XY        XZ        YY        YZ        ZZ
      1       H    1   -0.9061   -0.0000    0.0000   -0.9061   -0.0000   -0.8139
      2       H    1   -0.9061   -0.0000   -0.0000   -0.9061    0.0000   -0.8139

  MBIS Octupoles: [e a0^3]
   Center  Symbol  Z      XXX       XXY       XXZ       XYY       XYZ       XZZ       YYY       YYZ       YZZ       ZZZ
      1       H    1   -0.0000    0.0000   -0.1034   -0.0000    0.0000   -0.0000    0.0000   -0.1034    0.0000   -0.1728
      2       H    1   -0.0000    0.0000    0.1034   -0.0000   -0.0000   -0.0000    0.0000    0.1034    0.0000    0.1728

  MBIS Radial Moments:
   Center  Symbol  Z      [a0^2]      [a0^3]      [a0^4]
      1       H    1    2.626007    6.162734   17.401475
      2       H    1    2.626007    6.162734   17.401475

  MBIS Valence Widths: [a0]
   Center  Symbol  Z     Width
      1       H    1    0.467947
      2       H    1    0.467947

*** tstop() called on Mac.lan at Sun Aug 10 16:59:55 2025
Module time:
	user time   =       0.49 seconds =       0.01 minutes
	system time =       1.45 seconds =       0.02 minutes
	total time  =          0 seconds =       0.00 minutes
Total time:
	user time   =       1.49 seconds =       0.02 minutes
	system time =       3.57 seconds =       0.06 minutes
	total time  =          0 seconds =       0.00 minutes

    Psi4 stopped on: Sunday, 10 August 2025 04:59PM
    Psi4 wall time for execution: 0:00:00.77

*** Psi4 exiting successfully. Buy a developer a beer!
