                               Psi4 1.9.1 release

  ==> Input File <==

--------------------------------------------------------------------------
molecule {
0 2
O           0.000000           0.000000           0.000000
N           0.000000           0.000000           0.940148
}

set {
basis              cc-pvtz
reference          uks
maxiter            500
DAMPING_PERCENTAGE 1
E_CONVERGENCE      1.0E-8
D_CONVERGENCE      1.0E-8
DIIS_MAX_VECS      400
MBIS_MAXITER       8000
guess              read
}

E, wfn = energy('b3lyp', restart_file='last_wfn', return_wfn=True)
properties('b3lyp','MBIS_CHARGES', wfn=wfn)
wfn.to_file('last_wfn')
--------------------------------------------------------------------------

    Molecular point group: c2v
  Charge       = 0
  Multiplicity = 2
  Basis Set: CC-PVTZ
    Blend: CC-PVTZ
  Basis Set: (CC-PVTZ AUX)
    Blend: CC-PVTZ-JKFIT
  @DF-UKS Final Energy:  -129.79800295296857
    Total Energy =                       -129.7980029529685737
 Dipole X            :          0.0000000            0.0000000            0.0000000
 Dipole Y            :          0.0000000            0.0000000            0.0000000
 Dipole Z            :         -0.2575517           -0.0035647           -0.2611164
 Magnitude           :                                                    0.2611164
    Molecular point group: c2v

    Geometry (in Angstrom), charge = 0, multiplicity = 2:

       Center              X                  Y                   Z               Mass
    ------------   -----------------  -----------------  -----------------  -----------------
         O            0.000000000000     0.000000000000    -0.438861491153    15.994914619570
         N            0.000000000000     0.000000000000     0.501286508847    14.003074004430

  Charge       = 0
  Multiplicity = 2
  Basis Set: CC-PVTZ
    Blend: CC-PVTZ
  Basis Set: (CC-PVTZ AUX)
    Blend: CC-PVTZ-JKFIT

    Orbital Energies [Eh]
    ---------------------

    Alpha Occupied:

       1A1   -19.255638     2A1   -14.401568     3A1    -1.426875
       4A1    -0.662918     1B1    -0.638940     1B2    -0.618147
       5A1    -0.498019     2B1    -0.115606

    Alpha Virtual:

       2B2    -0.008189     6A1     0.240838     3B1     0.387526
       3B2     0.390549     7A1     0.430223     8A1     0.526833
       4B1     0.599402     4B2     0.611034     1A2     0.901774
       9A1     0.903197    10A1     0.942064    11A1     1.189633
       5B1     1.250420     5B2     1.253246     2A2     1.585841
      12A1     1.587295    13A1     1.891907     6B1     2.066605
       6B2     2.070391    14A1     2.381705     7B1     2.769674
       7B2     2.780959    15A1     3.170473    16A1     3.674215
       8B1     3.736772     8B2     3.737134     9B1     3.743856
       9B2     3.751703     3A2     3.852117    17A1     3.853750
      10B1     4.140828    10B2     4.142885     4A2     4.370416
      18A1     4.374733    19A1     4.616776    11B2     4.818357
      11B1     4.819027    12B1     5.107194    12B2     5.107329
      20A1     5.508716     5A2     6.023639    21A1     6.025059
       6A2     6.149335    22A1     6.151265    13B1     6.556676
      13B2     6.557925    23A1     6.726161    24A1     7.261653
      14B1     7.785499    14B2     7.786076    25A1     8.495811
      26A1    19.674256

    Beta Occupied:

       1A1   -19.244638     2A1   -14.388411     3A1    -1.410055
       4A1    -0.632378     1B2    -0.608635     1B1    -0.571319
       5A1    -0.466884

    Beta Virtual:

       2B2     0.005790     2B1     0.044005     6A1     0.245192
       3B2     0.394863     3B1     0.415653     7A1     0.441176
       8A1     0.537215     4B2     0.616658     4B1     0.636288
       9A1     0.924000     1A2     0.925151    10A1     0.964568
      11A1     1.198493     5B2     1.256568     5B1     1.285321
       2A2     1.613147    12A1     1.613310    13A1     1.904747
       6B2     2.074464     6B1     2.097549    14A1     2.398832
       7B2     2.791373     7B1     2.828069    15A1     3.186085
      16A1     3.690055     8B2     3.758706     8B1     3.772973
       9B2     3.774143     9B1     3.792251     3A2     3.871882
      17A1     3.872507    10B2     4.147053    10B1     4.180333
      18A1     4.423652     4A2     4.424725    19A1     4.635085
      11B2     4.822150    11B1     4.852440    12B2     5.134492
      12B1     5.134505    20A1     5.524228     5A2     6.049219
      21A1     6.049415     6A2     6.186145    22A1     6.186302
      13B2     6.561842    13B1     6.591112    23A1     6.736587
      24A1     7.275636    14B2     7.791182    14B1     7.823340
      25A1     8.515481    26A1    19.690651

    Final Occupation by Irrep:
             A1    A2    B1    B2
    DOCC [     5,    0,    1,    1 ]
    SOCC [     0,    0,    1,    0 ]
    NA   [     5,    0,    2,    1 ]
    NB   [     5,    0,    1,    1 ]

  @DF-UKS Final Energy:  -129.79800295151341

   => Energetics <=

    Nuclear Repulsion Energy =             31.5204880481796401
    One-Electron Energy =                -238.6145878218592316
    Two-Electron Energy =                  89.9432186400691478
    DFT Exchange-Correlation Energy =     -12.6471218179029563
    Empirical Dispersion Energy =           0.0000000000000000
    VV10 Nonlocal Energy =                  0.0000000000000000
    Total Energy =                       -129.7980029515134106

  UHF NO Occupations:
  HONO-2 :    5 A1 1.9996457
  HONO-1 :    1 B1 1.9995754
  HONO-0 :    2 B1 1.0000000
  LUNO+0 :    3 B1 0.0004246
  LUNO+1 :    6 A1 0.0003543
  LUNO+2 :    7 A1 0.0000948
  LUNO+3 :    2 B2 0.0000259

Computation Completed

Properties will be evaluated at   0.000000,   0.000000,   0.000000 [a0]

Properties computed using the B3LYP density matrix

 Multipole Moments:

 ------------------------------------------------------------------------------------
     Multipole            Electronic (a.u.)      Nuclear  (a.u.)        Total (a.u.)
 ------------------------------------------------------------------------------------

 L = 1.  Multiply by 2.5417464519 to convert [e a0] to [Debye]
 Dipole X            :          0.0000000            0.0000000            0.0000000
 Dipole Y            :          0.0000000            0.0000000            0.0000000
 Dipole Z            :         -0.2575517           -0.0035647           -0.2611165
 Magnitude           :                                                    0.2611165

 L = 2.  Multiply by 1.3450342976 to convert [e a0^2] to [Debye ang]
 Quadrupole XX       :         -7.6793953            0.0000000           -7.6793953
 Quadrupole XY       :          0.0000000            0.0000000            0.0000000
 Quadrupole XZ       :          0.0000000            0.0000000            0.0000000
 Quadrupole YY       :         -6.7205793            0.0000000           -6.7205793
 Quadrupole YZ       :          0.0000000            0.0000000            0.0000000
 Quadrupole ZZ       :        -20.2856980           11.7838441           -8.5018540
 Traceless XX        :          3.8824955           -3.9279480           -0.0454525
 Traceless YY        :          4.8413116           -3.9279480            0.9133636
 Traceless ZZ        :         -8.7238071            7.8558960           -0.8679111

 ------------------------------------------------------------------------------------
  ==> Computing MBIS Charges <==

  Electron Count from Grid (Expected Number): 15.00000 (15.00000)
  Difference: -0.00000

  MBIS Charges: (a.u.)
   Center  Symbol  Z      Pop.       Charge
      1       O    8    7.919150    0.080850
      2       N    7    7.080850   -0.080850

  MBIS Dipoles: [e a0]
   Center  Symbol  Z        X           Y           Z
      1       O    8    0.000000   -0.000000    0.099921
      2       N    7    0.000000   -0.000000   -0.217397

  MBIS Quadrupoles: [e a0^2]
   Center  Symbol  Z      XX        XY        XZ        YY        YZ        ZZ
      1       O    8   -3.3992   -0.0000   -0.0000   -3.1208   -0.0000   -3.5839
      2       N    7   -4.2802   -0.0000    0.0000   -3.5998    0.0000   -4.3234

  MBIS Octupoles: [e a0^3]
   Center  Symbol  Z      XXX       XXY       XXZ       XYY       XYZ       XZZ       YYY       YYZ       YZZ       ZZZ
      1       O    8    0.0000   -0.0000    0.1999    0.0000    0.0000    0.0000   -0.0000    0.1326    0.0000    0.1995
      2       N    7    0.0000   -0.0000   -0.5727    0.0000   -0.0000    0.0000   -0.0000   -0.1912   -0.0000   -0.2583

  MBIS Radial Moments:
   Center  Symbol  Z      [a0^2]      [a0^3]      [a0^4]
      1       O    8   10.103851   18.055608   38.894880
      2       N    7   12.203420   25.772447   65.170473

  MBIS Valence Widths: [a0]
   Center  Symbol  Z     Width
      1       O    8    0.366127
      2       N    7    0.433674

*** tstop() called on Mac.lan at Sun Aug 10 17:20:01 2025
Module time:
	user time   =       3.23 seconds =       0.05 minutes
	system time =       2.52 seconds =       0.04 minutes
	total time  =          1 seconds =       0.02 minutes
Total time:
	user time   =      15.79 seconds =       0.26 minutes
	system time =       4.71 seconds =       0.08 minutes
	total time  =          2 seconds =       0.03 minutes

    Psi4 stopped on: Sunday, 10 August 2025 05:20PM
    Psi4 wall time for execution: 0:00:01.99

*** Psi4 exiting successfully. Buy a developer a beer!
