                               Psi4 1.9.1 release

  ==> Input File <==

--------------------------------------------------------------------------
molecule {
0 1
H           0.000000           0.000000           0.000000
H           0.000000           0.000000           0.582164
}

set {
basis              cc-pvtz
reference          uks
maxiter            500
DAMPING_PERCENTAGE 1
E_CONVERGENCE      1.0E-8
D_CONVERGENCE      1.0E-8
DIIS_MAX_VECS      400
MBIS_MAXITER       8000
guess              read
}

E, wfn = energy('b3lyp', restart_file='last_wfn', return_wfn=True)
properties('b3lyp','MBIS_CHARGES', wfn=wfn)
wfn.to_file('last_wfn')
--------------------------------------------------------------------------

    Molecular point group: d2h
  Charge       = 0
  Multiplicity = 1
  Basis Set: CC-PVTZ
    Blend: CC-PVTZ
  Basis Set: (CC-PVTZ AUX)
    Blend: CC-PVTZ-JKFIT
  @DF-UKS Final Energy:    -1.15495838861422
    Total Energy =                         -1.1549583886142158
 Dipole X            :          0.0000000            0.0000000            0.0000000
 Dipole Y            :          0.0000000            0.0000000            0.0000000
 Dipole Z            :          0.0000000            0.0000000            0.0000000
 Magnitude           :                                                    0.0000000
    Molecular point group: d2h

    Geometry (in Angstrom), charge = 0, multiplicity = 1:

       Center              X                  Y                   Z               Mass
    ------------   -----------------  -----------------  -----------------  -----------------
         H            0.000000000000     0.000000000000    -0.291082000000     1.007825032230
         H            0.000000000000     0.000000000000     0.291082000000     1.007825032230

  Charge       = 0
  Multiplicity = 1
  Basis Set: CC-PVTZ
    Blend: CC-PVTZ
  Basis Set: (CC-PVTZ AUX)
    Blend: CC-PVTZ-JKFIT

    Orbital Energies [Eh]
    ---------------------

    Alpha Occupied:

       1Ag    -0.471338

    Alpha Virtual:

       1B1u    0.086197     2Ag     0.184404     1B3u    0.528427
       1B2u    0.528427     2B1u    0.528851     3Ag     0.950520
       1B3g    0.960414     1B2g    0.960414     3B1u    1.401489
       4Ag     1.994515     4B1u    2.249559     5Ag     2.915288
       1B1g    2.915288     2B3u    3.142513     2B2u    3.142513
       6Ag     3.407567     2B3g    3.444094     2B2g    3.444094
       1Au     3.959895     5B1u    3.959895     3B3u    3.975211
       3B2u    3.975211     6B1u    4.801726     3B3g    6.093444
       3B2g    6.093444     7Ag     6.123698     7B1u    7.871921

    Beta Occupied:

       1Ag    -0.471338

    Beta Virtual:

       1B1u    0.086197     2Ag     0.184404     1B2u    0.528427
       1B3u    0.528427     2B1u    0.528851     3Ag     0.950520
       1B3g    0.960414     1B2g    0.960414     3B1u    1.401489
       4Ag     1.994515     4B1u    2.249559     5Ag     2.915288
       1B1g    2.915288     2B3u    3.142513     2B2u    3.142513
       6Ag     3.407567     2B3g    3.444094     2B2g    3.444094
       1Au     3.959895     5B1u    3.959895     3B3u    3.975211
       3B2u    3.975211     6B1u    4.801726     3B3g    6.093444
       3B2g    6.093444     7Ag     6.123698     7B1u    7.871921

    Final Occupation by Irrep:
             Ag   B1g   B2g   B3g    Au   B1u   B2u   B3u
    DOCC [     1,    0,    0,    0,    0,    0,    0,    0 ]
    SOCC [     0,    0,    0,    0,    0,    0,    0,    0 ]
    NA   [     1,    0,    0,    0,    0,    0,    0,    0 ]
    NB   [     1,    0,    0,    0,    0,    0,    0,    0 ]

  @DF-UKS Final Energy:    -1.15495838874054

   => Energetics <=

    Nuclear Repulsion Energy =              0.9089830540363197
    One-Electron Energy =                  -2.7362533413392320
    Two-Electron Energy =                   1.2932256696358411
    DFT Exchange-Correlation Energy =      -0.6209137710734661
    Empirical Dispersion Energy =           0.0000000000000000
    VV10 Nonlocal Energy =                  0.0000000000000000
    Total Energy =                         -1.1549583887405372

  UHF NO Occupations:
  HONO-0 :    1 Ag 2.0000000
  LUNO+0 :    2 Ag 0.0000000
  LUNO+1 :    3 Ag 0.0000000
  LUNO+2 :    4 Ag 0.0000000
  LUNO+3 :    3B3u 0.0000000

Computation Completed

Properties will be evaluated at   0.000000,   0.000000,   0.000000 [a0]

Properties computed using the B3LYP density matrix

 Multipole Moments:

 ------------------------------------------------------------------------------------
     Multipole            Electronic (a.u.)      Nuclear  (a.u.)        Total (a.u.)
 ------------------------------------------------------------------------------------

 L = 1.  Multiply by 2.5417464519 to convert [e a0] to [Debye]
 Dipole X            :          0.0000000            0.0000000            0.0000000
 Dipole Y            :          0.0000000            0.0000000            0.0000000
 Dipole Z            :          0.0000000            0.0000000            0.0000000
 Magnitude           :                                                    0.0000000

 L = 2.  Multiply by 1.3450342976 to convert [e a0^2] to [Debye ang]
 Quadrupole XX       :         -1.3883410            0.0000000           -1.3883410
 Quadrupole XY       :          0.0000000            0.0000000            0.0000000
 Quadrupole XZ       :          0.0000000            0.0000000            0.0000000
 Quadrupole YY       :         -1.3883410            0.0000000           -1.3883410
 Quadrupole YZ       :          0.0000000            0.0000000            0.0000000
 Quadrupole ZZ       :         -1.7231616            0.6051436           -1.1180180
 Traceless XX        :          0.1116069           -0.2017145           -0.0901077
 Traceless YY        :          0.1116069           -0.2017145           -0.0901077
 Traceless ZZ        :         -0.2232137            0.4034291            0.1802153

 ------------------------------------------------------------------------------------
  ==> Computing MBIS Charges <==

  Electron Count from Grid (Expected Number):  2.00000 ( 2.00000)
  Difference:  0.00000

  MBIS Charges: (a.u.)
   Center  Symbol  Z      Pop.       Charge
      1       H    1    1.000000   -0.000000
      2       H    1    1.000000   -0.000000

  MBIS Dipoles: [e a0]
   Center  Symbol  Z        X           Y           Z
      1       H    1    0.000000   -0.000000   -0.056089
      2       H    1   -0.000000    0.000000    0.056089

  MBIS Quadrupoles: [e a0^2]
   Center  Symbol  Z      XX        XY        XZ        YY        YZ        ZZ
      1       H    1   -0.6942   -0.0000   -0.0000   -0.6942   -0.0000   -0.6207
      2       H    1   -0.6942    0.0000    0.0000   -0.6942    0.0000   -0.6207

  MBIS Octupoles: [e a0^3]
   Center  Symbol  Z      XXX       XXY       XXZ       XYY       XYZ       XZZ       YYY       YYZ       YZZ       ZZZ
      1       H    1    0.0000   -0.0000   -0.0182    0.0000   -0.0000    0.0000    0.0000   -0.0182    0.0000   -0.0130
      2       H    1    0.0000   -0.0000    0.0182    0.0000    0.0000    0.0000    0.0000    0.0182    0.0000    0.0130

  MBIS Radial Moments:
   Center  Symbol  Z      [a0^2]      [a0^3]      [a0^4]
      1       H    1    2.009056    4.247677   11.008361
      2       H    1    2.009056    4.247677   11.008361

  MBIS Valence Widths: [a0]
   Center  Symbol  Z     Width
      1       H    1    0.405355
      2       H    1    0.405355

*** tstop() called on Mac.lan at Sun Aug 10 16:59:24 2025
Module time:
	user time   =       0.48 seconds =       0.01 minutes
	system time =       1.40 seconds =       0.02 minutes
	total time  =          1 seconds =       0.02 minutes
Total time:
	user time   =       1.41 seconds =       0.02 minutes
	system time =       3.62 seconds =       0.06 minutes
	total time  =          1 seconds =       0.02 minutes

    Psi4 stopped on: Sunday, 10 August 2025 04:59PM
    Psi4 wall time for execution: 0:00:00.78

*** Psi4 exiting successfully. Buy a developer a beer!
