                               Psi4 1.9.1 release

  ==> Input File <==

--------------------------------------------------------------------------
molecule {
0 3
O           0.000000           0.000000           0.000000
O           0.000000           0.000000           1.033566
}

set {
basis              cc-pvtz
reference          uks
maxiter            500
DAMPING_PERCENTAGE 1
E_CONVERGENCE      1.0E-8
D_CONVERGENCE      1.0E-8
DIIS_MAX_VECS      400
MBIS_MAXITER       8000
guess              read
}

E, wfn = energy('b3lyp', restart_file='last_wfn', return_wfn=True)
properties('b3lyp','MBIS_CHARGES', wfn=wfn)
wfn.to_file('last_wfn')
--------------------------------------------------------------------------

    Molecular point group: d2h
  Charge       = 0
  Multiplicity = 3
  Basis Set: CC-PVTZ
    Blend: CC-PVTZ
  Basis Set: (CC-PVTZ AUX)
    Blend: CC-PVTZ-JKFIT
  @DF-UKS Final Energy:  -150.31526095907938
    Total Energy =                       -150.3152609590794100
 Dipole X            :          0.0000000            0.0000000            0.0000000
 Dipole Y            :          0.0000000            0.0000000            0.0000000
 Dipole Z            :          0.0000000            0.0000000            0.0000000
 Magnitude           :                                                    0.0000000
    Molecular point group: d2h

    Geometry (in Angstrom), charge = 0, multiplicity = 3:

       Center              X                  Y                   Z               Mass
    ------------   -----------------  -----------------  -----------------  -----------------
         O            0.000000000000     0.000000000000    -0.516783000000    15.994914619570
         O            0.000000000000     0.000000000000     0.516783000000    15.994914619570

  Charge       = 0
  Multiplicity = 3
  Basis Set: CC-PVTZ
    Blend: CC-PVTZ
  Basis Set: (CC-PVTZ AUX)
    Blend: CC-PVTZ-JKFIT

    Orbital Energies [Eh]
    ---------------------

    Alpha Occupied:

       1Ag   -19.265966     1B1u  -19.265075     2Ag    -1.469516
       2B1u   -0.785947     1B3u   -0.640270     1B2u   -0.640270
       3Ag    -0.581147     1B2g   -0.241416     1B3g   -0.241416

    Alpha Virtual:

       3B1u    0.317841     2B3u    0.474972     2B2u    0.474972
       4Ag     0.522298     2B2g    0.622045     2B3g    0.622045
       5Ag     0.649256     4B1u    0.685063     6Ag     1.157303
       1B1g    1.157303     5B1u    1.160420     3B2u    1.404608
       3B3u    1.404608     1Au     1.674145     6B1u    1.674146
       7Ag     2.191411     3B2g    2.242309     3B3g    2.242309
       7B1u    2.276931     4B3u    3.412141     4B2u    3.412141
       8Ag     3.682335     4B2g    3.805484     4B3g    3.805484
       8B1u    4.502846     2B1g    4.507227     9Ag     4.507228
       5B2u    4.722692     5B3u    4.722692     6B3u    4.752385
       6B2u    4.752385    10Ag     5.191901     5B2g    5.240307
       5B3g    5.240307     9B1u    5.800525     3B1g    5.987604
      11Ag     5.987606     2Au     6.061583    10B1u    6.061584
       6B2g    6.236096     6B3g    6.236096     3Au     6.279990
      11B1u    6.279994     7B2u    6.635312     7B3u    6.635312
      12Ag     6.980699    12B1u    7.284440     7B2g    7.927765
       7B3g    7.927765    13Ag     7.934896    13B1u   17.640049

    Beta Occupied:

       1Ag   -19.236014     1B1u  -19.234926     2Ag    -1.422039
       2B1u   -0.698803     1B3u   -0.543426     1B2u   -0.543426
       3Ag    -0.535836

    Beta Virtual:

       1B2g   -0.045913     1B3g   -0.045913     3B1u    0.337276
       2B3u    0.504780     2B2u    0.504780     4Ag     0.529819
       2B2g    0.667737     2B3g    0.667737     5Ag     0.673575
       4B1u    0.725889     5B1u    1.192869     6Ag     1.197303
       1B1g    1.197303     3B3u    1.440274     3B2u    1.440274
       6B1u    1.738398     1Au     1.738398     7Ag     2.218264
       3B2g    2.281068     3B3g    2.281068     7B1u    2.301915
       4B3u    3.487703     4B2u    3.487703     8Ag     3.705713
       4B2g    3.880128     4B3g    3.880128     2B1g    4.543101
       9Ag     4.543102     8B1u    4.544361     5B2u    4.755737
       5B3u    4.755737     6B3u    4.818813     6B2u    4.818813
      10Ag     5.221355     5B2g    5.315726     5B3g    5.315726
       9B1u    5.839045     3B1g    6.094870    11Ag     6.094873
       2Au     6.143582    10B1u    6.143584     6B2g    6.289648
       6B3g    6.289648     3Au     6.357266    11B1u    6.357269
       7B2u    6.686710     7B3u    6.686710    12Ag     7.038698
      12B1u    7.317780    13Ag     7.961391     7B2g    7.969620
       7B3g    7.969620    13B1u   17.683019

    Final Occupation by Irrep:
             Ag   B1g   B2g   B3g    Au   B1u   B2u   B3u
    DOCC [     3,    0,    0,    0,    0,    2,    1,    1 ]
    SOCC [     0,    0,    1,    1,    0,    0,    0,    0 ]
    NA   [     3,    0,    1,    1,    0,    2,    1,    1 ]
    NB   [     3,    0,    0,    0,    0,    2,    1,    1 ]

  @DF-UKS Final Energy:  -150.31526095896066

   => Energetics <=

    Nuclear Repulsion Energy =             32.7674686308179588
    One-Electron Energy =                -270.8209125358335427
    Two-Electron Energy =                 101.6713863937705042
    DFT Exchange-Correlation Energy =     -13.9332034477155986
    Empirical Dispersion Energy =           0.0000000000000000
    VV10 Nonlocal Energy =                  0.0000000000000000
    Total Energy =                       -150.3152609589606641

  UHF NO Occupations:
  HONO-2 :    1B2u 1.9989997
  HONO-1 :    1B2g 1.0000000
  HONO-0 :    1B3g 1.0000000
  LUNO+0 :    2B3u 0.0010003
  LUNO+1 :    2B2u 0.0010003
  LUNO+2 :    3B1u 0.0006775
  LUNO+3 :    4 Ag 0.0002578

Computation Completed

Properties will be evaluated at   0.000000,   0.000000,   0.000000 [a0]

Properties computed using the B3LYP density matrix

 Multipole Moments:

 ------------------------------------------------------------------------------------
     Multipole            Electronic (a.u.)      Nuclear  (a.u.)        Total (a.u.)
 ------------------------------------------------------------------------------------

 L = 1.  Multiply by 2.5417464519 to convert [e a0] to [Debye]
 Dipole X            :          0.0000000            0.0000000            0.0000000
 Dipole Y            :          0.0000000            0.0000000            0.0000000
 Dipole Z            :          0.0000000            0.0000000            0.0000000
 Magnitude           :                                                    0.0000000

 L = 2.  Multiply by 1.3450342976 to convert [e a0^2] to [Debye ang]
 Quadrupole XX       :         -7.1132297            0.0000000           -7.1132297
 Quadrupole XY       :          0.0000000            0.0000000            0.0000000
 Quadrupole XZ       :          0.0000000            0.0000000            0.0000000
 Quadrupole YY       :         -7.1132297            0.0000000           -7.1132297
 Quadrupole YZ       :          0.0000000            0.0000000            0.0000000
 Quadrupole ZZ       :        -23.2456757           15.2592840           -7.9863917
 Traceless XX        :          5.3774820           -5.0864280            0.2910540
 Traceless YY        :          5.3774820           -5.0864280            0.2910540
 Traceless ZZ        :        -10.7549640           10.1728560           -0.5821080

 ------------------------------------------------------------------------------------
  ==> Computing MBIS Charges <==

  Electron Count from Grid (Expected Number): 16.00000 (16.00000)
  Difference:  0.00000

  MBIS Charges: (a.u.)
   Center  Symbol  Z      Pop.       Charge
      1       O    8    8.000000   -0.000000
      2       O    8    8.000000   -0.000000

  MBIS Dipoles: [e a0]
   Center  Symbol  Z        X           Y           Z
      1       O    8   -0.000000   -0.000000    0.165209
      2       O    8   -0.000000   -0.000000   -0.165209

  MBIS Quadrupoles: [e a0^2]
   Center  Symbol  Z      XX        XY        XZ        YY        YZ        ZZ
      1       O    8   -3.5566    0.0000    0.0000   -3.5566    0.0000   -3.6705
      2       O    8   -3.5566    0.0000   -0.0000   -3.5566    0.0000   -3.6705

  MBIS Octupoles: [e a0^3]
   Center  Symbol  Z      XXX       XXY       XXZ       XYY       XYZ       XZZ       YYY       YYZ       YZZ       ZZZ
      1       O    8   -0.0000   -0.0000    0.2223    0.0000   -0.0000   -0.0000    0.0000    0.2223   -0.0000    0.0417
      2       O    8   -0.0000   -0.0000   -0.2223   -0.0000    0.0000   -0.0000   -0.0000   -0.2223   -0.0000   -0.0417

  MBIS Radial Moments:
   Center  Symbol  Z      [a0^2]      [a0^3]      [a0^4]
      1       O    8   10.783746   19.836503   43.880354
      2       O    8   10.783746   19.836503   43.880354

  MBIS Valence Widths: [a0]
   Center  Symbol  Z     Width
      1       O    8    0.376335
      2       O    8    0.376335

*** tstop() called on Mac.lan at Sun Aug 10 17:00:56 2025
Module time:
	user time   =       3.57 seconds =       0.06 minutes
	system time =       2.79 seconds =       0.05 minutes
	total time  =          1 seconds =       0.02 minutes
Total time:
	user time   =      16.40 seconds =       0.27 minutes
	system time =       5.35 seconds =       0.09 minutes
	total time  =          2 seconds =       0.03 minutes

    Psi4 stopped on: Sunday, 10 August 2025 05:00PM
    Psi4 wall time for execution: 0:00:02.12

*** Psi4 exiting successfully. Buy a developer a beer!
