                               Psi4 1.9.1 release

  ==> Input File <==

--------------------------------------------------------------------------
molecule {
0 3
C           0.000000           0.000000           0.000000
C           0.000000           0.000000           1.091925
}

set {
basis              cc-pvtz
reference          uks
maxiter            500
DAMPING_PERCENTAGE 1
E_CONVERGENCE      1.0E-8
D_CONVERGENCE      1.0E-8
DIIS_MAX_VECS      400
MBIS_MAXITER       8000
guess              read
}

E, wfn = energy('b3lyp', restart_file='last_wfn', return_wfn=True)
properties('b3lyp','MBIS_CHARGES', wfn=wfn)
wfn.to_file('last_wfn')
--------------------------------------------------------------------------

    Molecular point group: d2h
  Charge       = 0
  Multiplicity = 3
  Basis Set: CC-PVTZ
    Blend: CC-PVTZ
  Basis Set: (CC-PVTZ AUX)
    Blend: CC-PVTZ-JKFIT
  @DF-UKS Final Energy:   -75.86388683044271
    Total Energy =                        -75.8638868304427092
 Dipole X            :          0.0000000            0.0000000            0.0000000
 Dipole Y            :          0.0000000            0.0000000            0.0000000
 Dipole Z            :          0.0000000            0.0000000            0.0000000
 Magnitude           :                                                    0.0000000
    Molecular point group: d2h

    Geometry (in Angstrom), charge = 0, multiplicity = 3:

       Center              X                  Y                   Z               Mass
    ------------   -----------------  -----------------  -----------------  -----------------
         C            0.000000000000     0.000000000000    -0.545962500000    12.000000000000
         C            0.000000000000     0.000000000000     0.545962500000    12.000000000000

  Charge       = 0
  Multiplicity = 3
  Basis Set: CC-PVTZ
    Blend: CC-PVTZ
  Basis Set: (CC-PVTZ AUX)
    Blend: CC-PVTZ-JKFIT

    Orbital Energies [Eh]
    ---------------------

    Alpha Occupied:

       1Ag   -10.252502     1B1u  -10.245939     2Ag    -0.897451
       1B3u   -0.425294     2B1u   -0.418658     1B2u   -0.384455
       3Ag    -0.363134

    Alpha Virtual:

       1B2g    0.014887     1B3g    0.040690     3B1u    0.186306
       2B3u    0.236783     2B2u    0.252269     4Ag     0.255371
       5Ag     0.333864     2B2g    0.377586     2B3g    0.393492
       1B1g    0.539136     6Ag     0.539965     4B1u    0.559131
       5B1u    0.759994     3B3u    0.787675     3B2u    0.810884
       1Au     0.884373     6B1u    0.885549     7Ag     1.112924
       3B2g    1.128969     3B3g    1.143896     7B1u    1.629900
       4B3u    1.840862     4B2u    1.871233     8Ag     2.097448
       4B2g    2.250141     4B3g    2.279344     8B1u    2.337464
       2B1g    2.412600     9Ag     2.413977     5B3u    2.420195
       5B2u    2.420344     6B3u    2.530272     6B2u    2.562455
      10Ag     2.769866     5B2g    2.908908     5B3g    2.924495
       6B2g    2.931046     6B3g    2.935532     3B1g    2.944567
      11Ag     2.945384     9B1u    2.987785     2Au     2.987812
      10B1u    3.447705    12Ag     3.504487     7B3u    3.589737
       7B2u    3.616701     3Au     3.716718    11B1u    3.717300
      12B1u    4.351649     7B2g    4.926532     7B3g    4.957334
      13Ag     5.522956    13B1u   15.732372

    Beta Occupied:

       1Ag   -10.234720     1B1u  -10.228859     2Ag    -0.821357
       1B2u   -0.363227     2B1u   -0.329130

    Beta Virtual:

       1B3u   -0.259318     3Ag    -0.211862     1B3g    0.062799
       1B2g    0.080532     3B1u    0.199083     2B2u    0.258572
       2B3u    0.267288     4Ag     0.275558     5Ag     0.371875
       2B3g    0.404269     2B2g    0.416019     1B1g    0.569314
       6Ag     0.572154     4B1u    0.589580     5B1u    0.802832
       3B2u    0.838196     3B3u    0.840405     1Au     0.908594
       6B1u    0.910474     7Ag     1.152571     3B3g    1.162020
       3B2g    1.165158     7B1u    1.685379     4B2u    1.885867
       4B3u    1.898855     8Ag     2.145536     4B3g    2.292825
       4B2g    2.301468     8B1u    2.385249     2B1g    2.455410
       5B2u    2.457738     5B3u    2.458829     9Ag     2.458994
       6B2u    2.602831     6B3u    2.616012    10Ag     2.845021
       5B3g    2.965889     5B2g    2.966807     6B3g    2.977662
       6B2g    2.982517     3B1g    2.994514    11Ag     2.998860
       2Au     3.035698     9B1u    3.040070    10B1u    3.506158
      12Ag     3.546006     7B2u    3.656238     7B3u    3.659734
       3Au     3.758571    11B1u    3.762069    12B1u    4.410839
       7B3g    4.989665     7B2g    5.000839    13Ag     5.565540
      13B1u   15.758482

    Final Occupation by Irrep:
             Ag   B1g   B2g   B3g    Au   B1u   B2u   B3u
    DOCC [     2,    0,    0,    0,    0,    2,    1,    0 ]
    SOCC [     1,    0,    0,    0,    0,    0,    0,    1 ]
    NA   [     3,    0,    0,    0,    0,    2,    1,    1 ]
    NB   [     2,    0,    0,    0,    0,    2,    1,    0 ]

  @DF-UKS Final Energy:   -75.86388683054302

   => Energetics <=

    Nuclear Repulsion Energy =             17.4466008051102399
    One-Electron Energy =                -135.3756045901531309
    Two-Electron Energy =                  50.7810218398153026
    DFT Exchange-Correlation Energy =      -8.7159048853154406
    Empirical Dispersion Energy =           0.0000000000000000
    VV10 Nonlocal Energy =                  0.0000000000000000
    Total Energy =                        -75.8638868305430378

  UHF NO Occupations:
  HONO-2 :    2B1u 1.9984551
  HONO-1 :    3 Ag 1.0000000
  HONO-0 :    1B3u 1.0000000
  LUNO+0 :    3B1u 0.0015449
  LUNO+1 :    4 Ag 0.0003757
  LUNO+2 :    2B2u 0.0001286
  LUNO+3 :    4B1u 0.0000007

Computation Completed

Properties will be evaluated at   0.000000,   0.000000,   0.000000 [a0]

Properties computed using the B3LYP density matrix

 Multipole Moments:

 ------------------------------------------------------------------------------------
     Multipole            Electronic (a.u.)      Nuclear  (a.u.)        Total (a.u.)
 ------------------------------------------------------------------------------------

 L = 1.  Multiply by 2.5417464519 to convert [e a0] to [Debye]
 Dipole X            :          0.0000000            0.0000000            0.0000000
 Dipole Y            :          0.0000000            0.0000000            0.0000000
 Dipole Z            :          0.0000000            0.0000000            0.0000000
 Magnitude           :                                                    0.0000000

 L = 2.  Multiply by 1.3450342976 to convert [e a0^2] to [Debye ang]
 Quadrupole XX       :         -7.4060456            0.0000000           -7.4060456
 Quadrupole XY       :          0.0000000            0.0000000            0.0000000
 Quadrupole XZ       :          0.0000000            0.0000000            0.0000000
 Quadrupole YY       :         -8.6743450            0.0000000           -8.6743450
 Quadrupole YZ       :          0.0000000            0.0000000            0.0000000
 Quadrupole ZZ       :        -22.0521374           12.7733440           -9.2787934
 Traceless XX        :          5.3047971           -4.2577813            1.0470158
 Traceless YY        :          4.0364976           -4.2577813           -0.2212837
 Traceless ZZ        :         -9.3412947            8.5155627           -0.8257321

 ------------------------------------------------------------------------------------
  ==> Computing MBIS Charges <==

  Electron Count from Grid (Expected Number): 12.00000 (12.00000)
  Difference: -0.00000

  MBIS Charges: (a.u.)
   Center  Symbol  Z      Pop.       Charge
      1       C    6    6.000000    0.000000
      2       C    6    6.000000    0.000000

  MBIS Dipoles: [e a0]
   Center  Symbol  Z        X           Y           Z
      1       C    6   -0.000000    0.000000    0.010439
      2       C    6   -0.000000    0.000000   -0.010439

  MBIS Quadrupoles: [e a0^2]
   Center  Symbol  Z      XX        XY        XZ        YY        YZ        ZZ
      1       C    6   -3.7030   -0.0000   -0.0000   -4.3372   -0.0000   -4.6179
      2       C    6   -3.7030   -0.0000    0.0000   -4.3372    0.0000   -4.6179

  MBIS Octupoles: [e a0^3]
   Center  Symbol  Z      XXX       XXY       XXZ       XYY       XYZ       XZZ       YYY       YYZ       YZZ       ZZZ
      1       C    6   -0.0000    0.0000    0.2265   -0.0000   -0.0000   -0.0000    0.0000    0.0407    0.0000    0.4648
      2       C    6   -0.0000    0.0000   -0.2265   -0.0000    0.0000   -0.0000    0.0000   -0.0407    0.0000   -0.4648

  MBIS Radial Moments:
   Center  Symbol  Z      [a0^2]      [a0^3]      [a0^4]
      1       C    6   12.658051   30.045489   85.480537
      2       C    6   12.658051   30.045489   85.480537

  MBIS Valence Widths: [a0]
   Center  Symbol  Z     Width
      1       C    6    0.495504
      2       C    6    0.495504

*** tstop() called on Mac.lan at Sun Aug 10 17:03:29 2025
Module time:
	user time   =       4.12 seconds =       0.07 minutes
	system time =       2.08 seconds =       0.03 minutes
	total time  =          1 seconds =       0.02 minutes
Total time:
	user time   =      17.04 seconds =       0.28 minutes
	system time =       4.85 seconds =       0.08 minutes
	total time  =          2 seconds =       0.03 minutes

    Psi4 stopped on: Sunday, 10 August 2025 05:03PM
    Psi4 wall time for execution: 0:00:02.14

*** Psi4 exiting successfully. Buy a developer a beer!
