                               Psi4 1.9.1 release

  ==> Input File <==

--------------------------------------------------------------------------
molecule {
0 2
O           0.000000           0.000000           0.000000
H           0.000000           0.000000           1.068088
}

set {
basis              cc-pvtz
reference          uks
maxiter            500
DAMPING_PERCENTAGE 1
E_CONVERGENCE      1.0E-8
D_CONVERGENCE      1.0E-8
DIIS_MAX_VECS      400
MBIS_MAXITER       8000
guess              read
}

E, wfn = energy('b3lyp', restart_file='last_wfn', return_wfn=True)
properties('b3lyp','MBIS_CHARGES', wfn=wfn)
wfn.to_file('last_wfn')
--------------------------------------------------------------------------

    Molecular point group: c2v
  Charge       = 0
  Multiplicity = 2
  Basis Set: CC-PVTZ
    Blend: CC-PVTZ
  Basis Set: (CC-PVTZ AUX)
    Blend: CC-PVTZ-JKFIT
  @DF-UKS Final Energy:   -75.75791408982187
    Total Energy =                        -75.7579140898218668
 Dipole X            :          0.0000000            0.0000000            0.0000000
 Dipole Y            :          0.0000000            0.0000000            0.0000000
 Dipole Z            :         -0.2629609            0.9416444            0.6786835
 Magnitude           :                                                    0.6786835
    Molecular point group: c2v

    Geometry (in Angstrom), charge = 0, multiplicity = 2:

       Center              X                  Y                   Z               Mass
    ------------   -----------------  -----------------  -----------------  -----------------
         O            0.000000000000     0.000000000000    -0.063310139723    15.994914619570
         H            0.000000000000     0.000000000000     1.004777860277     1.007825032230

  Charge       = 0
  Multiplicity = 2
  Basis Set: CC-PVTZ
    Blend: CC-PVTZ
  Basis Set: (CC-PVTZ AUX)
    Blend: CC-PVTZ-JKFIT

    Orbital Energies [Eh]
    ---------------------

    Alpha Occupied:

       1A1   -19.202593     2A1    -0.995483     3A1    -0.463369
       1B1    -0.413315     1B2    -0.340318

    Alpha Virtual:

       4A1     0.008234     5A1     0.321970     2B1     0.521547
       6A1     0.529230     2B2     0.555709     3B1     0.681031
       3B2     0.696560     7A1     0.897395     8A1     1.153206
       1A2     1.423426     9A1     1.423971     4B1     1.682001
       4B2     1.720263    10A1     1.967881    11A1     2.350097
       2A2     3.162399    12A1     3.162525     5B1     3.265352
       5B2     3.300839    13A1     3.552861     6B1     3.612129
       6B2     3.636087     7B1     3.920125     7B2     3.955884
      14A1     4.060131    15A1     4.733076     8B1     5.072561
       8B2     5.072815     3A2     5.245582    16A1     5.246587
       9B1     6.009190     9B2     6.060291    17A1     6.134807
       4A2     6.135844    18A1     6.177660    10B1     6.464215
      10B2     6.516537    19A1     6.844964    20A1     9.327623

    Beta Occupied:

       1A1   -19.176937     2A1    -0.922639     3A1    -0.439581
       1B2    -0.314596

    Beta Virtual:

       1B1    -0.165815     4A1     0.015872     5A1     0.325886
       6A1     0.538207     2B2     0.565031     2B1     0.590010
       3B2     0.695694     3B1     0.697368     7A1     0.928922
       8A1     1.161066     1A2     1.475563     9A1     1.481537
       4B2     1.726473     4B1     1.732493    10A1     1.982348
      11A1     2.352552     2A2     3.164181    12A1     3.164679
       5B2     3.306373     5B1     3.319945    13A1     3.558018
       6B2     3.636439     6B1     3.644112     7B2     3.962965
       7B1     3.972300    14A1     4.075681    15A1     4.761240
       8B2     5.142717     8B1     5.145712     3A2     5.291455
      16A1     5.296532     9B2     6.071464     9B1     6.084470
      17A1     6.202974     4A2     6.228169    18A1     6.242571
      10B2     6.527082    10B1     6.540653    19A1     6.878466
      20A1     9.363294

    Final Occupation by Irrep:
             A1    A2    B1    B2
    DOCC [     3,    0,    0,    1 ]
    SOCC [     0,    0,    1,    0 ]
    NA   [     3,    0,    1,    1 ]
    NB   [     3,    0,    0,    1 ]

  @DF-UKS Final Energy:   -75.75791409043786

   => Energetics <=

    Nuclear Repulsion Energy =              3.9635476527776738
    One-Electron Energy =                -112.0272108004702432
    Two-Electron Energy =                  39.4656437728264180
    DFT Exchange-Correlation Energy =      -7.1598947155717116
    Empirical Dispersion Energy =           0.0000000000000000
    VV10 Nonlocal Energy =                  0.0000000000000000
    Total Energy =                        -75.7579140904378505

  UHF NO Occupations:
  HONO-2 :    2 A1 1.9996099
  HONO-1 :    3 A1 1.9992242
  HONO-0 :    1 B1 1.0000000
  LUNO+0 :    4 A1 0.0007758
  LUNO+1 :    5 A1 0.0003901
  LUNO+2 :    2 B2 0.0001602
  LUNO+3 :    6 A1 0.0000006

Computation Completed

Properties will be evaluated at   0.000000,   0.000000,   0.000000 [a0]

Properties computed using the B3LYP density matrix

 Multipole Moments:

 ------------------------------------------------------------------------------------
     Multipole            Electronic (a.u.)      Nuclear  (a.u.)        Total (a.u.)
 ------------------------------------------------------------------------------------

 L = 1.  Multiply by 2.5417464519 to convert [e a0] to [Debye]
 Dipole X            :          0.0000000            0.0000000            0.0000000
 Dipole Y            :          0.0000000            0.0000000            0.0000000
 Dipole Z            :         -0.2629609            0.9416444            0.6786835
 Magnitude           :                                                    0.6786835

 L = 2.  Multiply by 1.3450342976 to convert [e a0^2] to [Debye ang]
 Quadrupole XX       :         -4.0761440            0.0000000           -4.0761440
 Quadrupole XY       :          0.0000000            0.0000000            0.0000000
 Quadrupole XZ       :          0.0000000            0.0000000            0.0000000
 Quadrupole YY       :         -4.9733325            0.0000000           -4.9733325
 Quadrupole YZ       :          0.0000000            0.0000000            0.0000000
 Quadrupole ZZ       :         -6.8423022            3.7197780           -3.1225241
 Traceless XX        :          1.2211155           -1.2399260           -0.0188105
 Traceless YY        :          0.3239271           -1.2399260           -0.9159989
 Traceless ZZ        :         -1.5450426            2.4798520            0.9348094

 ------------------------------------------------------------------------------------
  ==> Computing MBIS Charges <==

  Electron Count from Grid (Expected Number):  9.00000 ( 9.00000)
  Difference:  0.00000

  MBIS Charges: (a.u.)
   Center  Symbol  Z      Pop.       Charge
      1       O    8    8.359175   -0.359175
      2       H    1    0.640825    0.359175

  MBIS Dipoles: [e a0]
   Center  Symbol  Z        X           Y           Z
      1       O    8    0.000000    0.000000   -0.084008
      2       H    1    0.000000   -0.000000    0.037735

  MBIS Quadrupoles: [e a0^2]
   Center  Symbol  Z      XX        XY        XZ        YY        YZ        ZZ
      1       O    8   -3.7215    0.0000    0.0000   -4.5782   -0.0000   -4.2184
      2       H    1   -0.3547   -0.0000    0.0000   -0.3951   -0.0000   -0.3573

  MBIS Octupoles: [e a0^3]
   Center  Symbol  Z      XXX       XXY       XXZ       XYY       XYZ       XZZ       YYY       YYZ       YZZ       ZZZ
      1       O    8   -0.0000   -0.0000   -0.0874   -0.0000   -0.0000    0.0000   -0.0000   -0.0935   -0.0000   -0.4224
      2       H    1    0.0000   -0.0000   -0.0045    0.0000   -0.0000    0.0000   -0.0000    0.0163   -0.0000    0.0337

  MBIS Radial Moments:
   Center  Symbol  Z      [a0^2]      [a0^3]      [a0^4]
      1       O    8   12.518111   24.111933   55.513707
      2       H    1    1.107070    2.088108    4.709398

  MBIS Valence Widths: [a0]
   Center  Symbol  Z     Width
      1       O    8    0.395715
      2       H    1    0.380614

*** tstop() called on Mac.lan at Sun Aug 10 17:11:18 2025
Module time:
	user time   =       2.30 seconds =       0.04 minutes
	system time =       2.15 seconds =       0.04 minutes
	total time  =          0 seconds =       0.00 minutes
Total time:
	user time   =      13.85 seconds =       0.23 minutes
	system time =       4.13 seconds =       0.07 minutes
	total time  =          1 seconds =       0.02 minutes

    Psi4 stopped on: Sunday, 10 August 2025 05:11PM
    Psi4 wall time for execution: 0:00:01.77

*** Psi4 exiting successfully. Buy a developer a beer!
