                               Psi4 1.9.1 release

  ==> Input File <==

--------------------------------------------------------------------------
molecule {
0 1
N           0.000000           0.000000           0.000000
N           0.000000           0.000000           1.576856
}

set {
basis              cc-pvtz
reference          uks
maxiter            500
DAMPING_PERCENTAGE 1
E_CONVERGENCE      1.0E-8
D_CONVERGENCE      1.0E-8
DIIS_MAX_VECS      400
MBIS_MAXITER       8000
guess              read
}

E, wfn = energy('b3lyp', restart_file='last_wfn', return_wfn=True)
properties('b3lyp','MBIS_CHARGES', wfn=wfn)
wfn.to_file('last_wfn')
--------------------------------------------------------------------------

    Molecular point group: d2h
  Charge       = 0
  Multiplicity = 1
  Basis Set: CC-PVTZ
    Blend: CC-PVTZ
  Basis Set: (CC-PVTZ AUX)
    Blend: CC-PVTZ-JKFIT
  @DF-UKS Final Energy:  -109.32327570927912
    Total Energy =                       -109.3232757092791161
 Dipole X            :          0.0000000            0.0000000            0.0000000
 Dipole Y            :          0.0000000            0.0000000            0.0000000
 Dipole Z            :          0.0000000           -0.0000000           -0.0000000
 Magnitude           :                                                    0.0000000
    Molecular point group: d2h

    Geometry (in Angstrom), charge = 0, multiplicity = 1:

       Center              X                  Y                   Z               Mass
    ------------   -----------------  -----------------  -----------------  -----------------
         N            0.000000000000     0.000000000000    -0.788428000000    14.003074004430
         N            0.000000000000     0.000000000000     0.788428000000    14.003074004430

  Charge       = 0
  Multiplicity = 1
  Basis Set: CC-PVTZ
    Blend: CC-PVTZ
  Basis Set: (CC-PVTZ AUX)
    Blend: CC-PVTZ-JKFIT

    Orbital Energies [Eh]
    ---------------------

    Alpha Occupied:

       1Ag   -14.499257     1B1u  -14.499105     2Ag    -0.902821
       2B1u   -0.665557     3Ag    -0.403750     1B3u   -0.365908
       1B2u   -0.365908

    Alpha Virtual:

       1B2g   -0.172446     1B3g   -0.172446     3B1u    0.032750
       4B1u    0.392773     2B2u    0.420027     2B3u    0.420027
       4Ag     0.448071     2B3g    0.500694     2B2g    0.500694
       5Ag     0.501606     5B1u    0.856497     3B3u    0.887218
       3B2u    0.887218     6Ag     0.896426     1B1g    0.896426
       1Au     1.124133     6B1u    1.124133     7Ag     1.397575
       3B2g    1.499655     3B3g    1.499655     7B1u    1.666582
       4B2u    2.676329     4B3u    2.676329     8Ag     2.712321
       4B3g    2.842192     4B2g    2.842192     8B1u    3.393898
       5B3u    3.512238     5B2u    3.512238     9Ag     3.564433
      10Ag     3.590001     2B1g    3.590001     6B3u    3.784558
       6B2u    3.784558     5B2g    3.861492     5B3g    3.861492
       9B1u    4.077873     2Au     4.077875    11Ag     4.317835
       3B1g    4.317839     6B2g    4.375499     6B3g    4.375499
      10B1u    4.460166     3Au     4.460170     7B3u    4.469601
       7B2u    4.469601    11B1u    4.541404    12Ag     4.871390
      12B1u    4.908433     7B2g    5.072075     7B3g    5.072075
      13Ag     5.556194    13B1u    7.061688

    Beta Occupied:

       1Ag   -14.499257     1B1u  -14.499105     2Ag    -0.902821
       2B1u   -0.665557     3Ag    -0.403750     1B3u   -0.365908
       1B2u   -0.365908

    Beta Virtual:

       1B2g   -0.172446     1B3g   -0.172446     3B1u    0.032750
       4B1u    0.392773     2B2u    0.420027     2B3u    0.420027
       4Ag     0.448071     2B3g    0.500694     2B2g    0.500694
       5Ag     0.501606     5B1u    0.856497     3B3u    0.887218
       3B2u    0.887218     6Ag     0.896426     1B1g    0.896426
       1Au     1.124133     6B1u    1.124133     7Ag     1.397575
       3B2g    1.499655     3B3g    1.499655     7B1u    1.666582
       4B2u    2.676329     4B3u    2.676329     8Ag     2.712321
       4B3g    2.842192     4B2g    2.842192     8B1u    3.393898
       5B3u    3.512238     5B2u    3.512238     9Ag     3.564433
      10Ag     3.590001     2B1g    3.590001     6B3u    3.784558
       6B2u    3.784558     5B2g    3.861492     5B3g    3.861492
       9B1u    4.077873     2Au     4.077875    11Ag     4.317835
       3B1g    4.317839     6B2g    4.375499     6B3g    4.375499
      10B1u    4.460166     3Au     4.460170     7B3u    4.469601
       7B2u    4.469601    11B1u    4.541404    12Ag     4.871390
      12B1u    4.908433     7B2g    5.072075     7B3g    5.072075
      13Ag     5.556194    13B1u    7.061688

    Final Occupation by Irrep:
             Ag   B1g   B2g   B3g    Au   B1u   B2u   B3u
    DOCC [     3,    0,    0,    0,    0,    2,    1,    1 ]
    SOCC [     0,    0,    0,    0,    0,    0,    0,    0 ]
    NA   [     3,    0,    0,    0,    0,    2,    1,    1 ]
    NB   [     3,    0,    0,    0,    0,    2,    1,    1 ]

  @DF-UKS Final Energy:  -109.32327570951280

   => Energetics <=

    Nuclear Repulsion Energy =             16.4439132823986469
    One-Electron Energy =                -180.3538355218788354
    Two-Electron Energy =                  65.3782485603896077
    DFT Exchange-Correlation Energy =     -10.7916020304222293
    Empirical Dispersion Energy =           0.0000000000000000
    VV10 Nonlocal Energy =                  0.0000000000000000
    Total Energy =                       -109.3232757095127994

  UHF NO Occupations:
  HONO-2 :    1B3u 2.0000000
  HONO-1 :    2B1u 2.0000000
  HONO-0 :    3 Ag 2.0000000
  LUNO+0 :    4 Ag 0.0000000
  LUNO+1 :    2B2u 0.0000000
  LUNO+2 :    5 Ag 0.0000000
  LUNO+3 :    3B1u 0.0000000

Computation Completed

Properties will be evaluated at   0.000000,   0.000000,   0.000000 [a0]

Properties computed using the B3LYP density matrix

 Multipole Moments:

 ------------------------------------------------------------------------------------
     Multipole            Electronic (a.u.)      Nuclear  (a.u.)        Total (a.u.)
 ------------------------------------------------------------------------------------

 L = 1.  Multiply by 2.5417464519 to convert [e a0] to [Debye]
 Dipole X            :          0.0000000            0.0000000            0.0000000
 Dipole Y            :          0.0000000            0.0000000            0.0000000
 Dipole Z            :          0.0000000           -0.0000000           -0.0000000
 Magnitude           :                                                    0.0000000

 L = 2.  Multiply by 1.3450342976 to convert [e a0^2] to [Debye ang]
 Quadrupole XX       :         -8.3249843            0.0000000           -8.3249843
 Quadrupole XY       :          0.0000000            0.0000000            0.0000000
 Quadrupole XZ       :          0.0000000            0.0000000            0.0000000
 Quadrupole YY       :         -8.3249843            0.0000000           -8.3249843
 Quadrupole YZ       :          0.0000000            0.0000000            0.0000000
 Quadrupole ZZ       :        -39.4690139           31.0777700           -8.3912438
 Traceless XX        :         10.3813432          -10.3592567            0.0220865
 Traceless YY        :         10.3813432          -10.3592567            0.0220865
 Traceless ZZ        :        -20.7626864           20.7185134           -0.0441730

 ------------------------------------------------------------------------------------
  ==> Computing MBIS Charges <==

  Electron Count from Grid (Expected Number): 14.00000 (14.00000)
  Difference: -0.00000

  MBIS Charges: (a.u.)
   Center  Symbol  Z      Pop.       Charge
      1       N    7    7.000000    0.000000
      2       N    7    7.000000    0.000000

  MBIS Dipoles: [e a0]
   Center  Symbol  Z        X           Y           Z
      1       N    7    0.000000   -0.000000   -0.062693
      2       N    7   -0.000000   -0.000000    0.062693

  MBIS Quadrupoles: [e a0^2]
   Center  Symbol  Z      XX        XY        XZ        YY        YZ        ZZ
      1       N    7   -4.1625   -0.0000    0.0000   -4.1625   -0.0000   -4.3824
      2       N    7   -4.1625   -0.0000   -0.0000   -4.1625    0.0000   -4.3824

  MBIS Octupoles: [e a0^3]
   Center  Symbol  Z      XXX       XXY       XXZ       XYY       XYZ       XZZ       YYY       YYZ       YZZ       ZZZ
      1       N    7   -0.0000   -0.0000   -0.2303    0.0000   -0.0000   -0.0000   -0.0000   -0.2303   -0.0000   -0.5099
      2       N    7   -0.0000   -0.0000    0.2303    0.0000    0.0000   -0.0000   -0.0000    0.2303   -0.0000    0.5099

  MBIS Radial Moments:
   Center  Symbol  Z      [a0^2]      [a0^3]      [a0^4]
      1       N    7   12.707420   27.265583   69.603225
      2       N    7   12.707420   27.265583   69.603225

  MBIS Valence Widths: [a0]
   Center  Symbol  Z     Width
      1       N    7    0.448758
      2       N    7    0.448758

*** tstop() called on Mac.lan at Sun Aug 10 17:07:50 2025
Module time:
	user time   =       4.33 seconds =       0.07 minutes
	system time =       2.40 seconds =       0.04 minutes
	total time  =          1 seconds =       0.02 minutes
Total time:
	user time   =      15.56 seconds =       0.26 minutes
	system time =       4.39 seconds =       0.07 minutes
	total time  =          2 seconds =       0.03 minutes

    Psi4 stopped on: Sunday, 10 August 2025 05:07PM
    Psi4 wall time for execution: 0:00:01.97

*** Psi4 exiting successfully. Buy a developer a beer!
