                               Psi4 1.9.1 release

  ==> Input File <==

--------------------------------------------------------------------------
molecule {
0 3
O           0.000000           0.000000           0.000000
O           0.000000           0.000000           1.410080
}

set {
basis              cc-pvtz
reference          uks
maxiter            500
DAMPING_PERCENTAGE 1
E_CONVERGENCE      1.0E-8
D_CONVERGENCE      1.0E-8
DIIS_MAX_VECS      400
MBIS_MAXITER       8000
guess              read
}

E, wfn = energy('b3lyp', restart_file='last_wfn', return_wfn=True)
properties('b3lyp','MBIS_CHARGES', wfn=wfn)
wfn.to_file('last_wfn')
--------------------------------------------------------------------------

    Molecular point group: d2h
  Charge       = 0
  Multiplicity = 3
  Basis Set: CC-PVTZ
    Blend: CC-PVTZ
  Basis Set: (CC-PVTZ AUX)
    Blend: CC-PVTZ-JKFIT
  @DF-UKS Final Energy:  -150.34230522510222
    Total Energy =                       -150.3423052251022227
 Dipole X            :          0.0000000            0.0000000            0.0000000
 Dipole Y            :          0.0000000            0.0000000            0.0000000
 Dipole Z            :          0.0000000            0.0000000            0.0000000
 Magnitude           :                                                    0.0000000
    Molecular point group: d2h

    Geometry (in Angstrom), charge = 0, multiplicity = 3:

       Center              X                  Y                   Z               Mass
    ------------   -----------------  -----------------  -----------------  -----------------
         O            0.000000000000     0.000000000000    -0.705040000000    15.994914619570
         O            0.000000000000     0.000000000000     0.705040000000    15.994914619570

  Charge       = 0
  Multiplicity = 3
  Basis Set: CC-PVTZ
    Blend: CC-PVTZ
  Basis Set: (CC-PVTZ AUX)
    Blend: CC-PVTZ-JKFIT

    Orbital Energies [Eh]
    ---------------------

    Alpha Occupied:

       1Ag   -19.309544     1B1u  -19.309476     2Ag    -1.183199
       2B1u   -0.900020     3Ag    -0.525201     1B2u   -0.516684
       1B3u   -0.516684     1B3g   -0.365018     1B2g   -0.365018

    Alpha Virtual:

       3B1u   -0.018581     4B1u    0.470652     2B2u    0.503231
       2B3u    0.503231     4Ag     0.570641     2B2g    0.605952
       2B3g    0.605952     5Ag     0.677707     5B1u    1.163220
       3B3u    1.204236     3B2u    1.204236     6Ag     1.257177
       1B1g    1.257177     1Au     1.526908     6B1u    1.526909
       7Ag     1.805132     3B2g    2.005034     3B3g    2.005034
       7B1u    2.200782     4B2u    3.369460     4B3u    3.369460
       8Ag     3.405308     4B2g    3.575817     4B3g    3.575817
       8B1u    4.355113     5B3u    4.611923     5B2u    4.611923
       9Ag     4.714955    10Ag     4.730140     2B1g    4.730140
       6B3u    4.965311     6B2u    4.965311     5B2g    5.049375
       5B3g    5.049375     9B1u    5.313384     2Au     5.313385
       6B2g    5.820758     6B3g    5.820758     3B1g    5.982291
      11Ag     5.982303    10B1u    6.094411     7B3u    6.143073
       7B2u    6.143073     3Au     6.147241    11B1u    6.147255
      12Ag     6.557980    12B1u    6.750318     7B2g    6.784548
       7B3g    6.784548    13Ag     7.431592    13B1u    9.052209

    Beta Occupied:

       1Ag   -19.279394     1B1u  -19.279240     2Ag    -1.118470
       2B1u   -0.810184     3Ag    -0.492621     1B2u   -0.409732
       1B3u   -0.409732

    Beta Virtual:

       1B3g   -0.174205     1B2g   -0.174205     3B1u    0.020825
       4B1u    0.483683     2B2u    0.543488     2B3u    0.543488
       4Ag     0.583225     2B2g    0.645272     2B3g    0.645272
       5Ag     0.697678     5B1u    1.195689     3B3u    1.228898
       3B2u    1.228898     6Ag     1.302747     1B1g    1.302747
       6B1u    1.585747     1Au     1.585747     7Ag     1.836481
       3B2g    2.039821     3B3g    2.039821     7B1u    2.220872
       8Ag     3.423847     4B2u    3.442503     4B3u    3.442503
       4B2g    3.652961     4B3g    3.652961     8B1u    4.388453
       5B3u    4.647359     5B2u    4.647359     9Ag     4.750327
      10Ag     4.775994     2B1g    4.775994     6B3u    5.038105
       6B2u    5.038105     5B2g    5.123476     5B3g    5.123476
       9B1u    5.365615     2Au     5.365617     6B2g    5.869881
       6B3g    5.869881     3B1g    6.091622    11Ag     6.091633
      10B1u    6.126693     7B3u    6.203901     7B2u    6.203901
       3Au     6.253551    11B1u    6.253563    12Ag     6.583315
      12B1u    6.791976     7B2g    6.831262     7B3g    6.831262
      13Ag     7.492301    13B1u    9.091819

    Final Occupation by Irrep:
             Ag   B1g   B2g   B3g    Au   B1u   B2u   B3u
    DOCC [     3,    0,    0,    0,    0,    2,    1,    1 ]
    SOCC [     0,    0,    1,    1,    0,    0,    0,    0 ]
    NA   [     3,    0,    1,    1,    0,    2,    1,    1 ]
    NB   [     3,    0,    0,    0,    0,    2,    1,    1 ]

  @DF-UKS Final Energy:  -150.34230522500766

   => Energetics <=

    Nuclear Repulsion Energy =             24.0180283975944704
    One-Electron Energy =                -254.1132397900163937
    Two-Electron Energy =                  93.4137656803598162
    DFT Exchange-Correlation Energy =     -13.6608595129455743
    Empirical Dispersion Energy =           0.0000000000000000
    VV10 Nonlocal Energy =                  0.0000000000000000
    Total Energy =                       -150.3423052250076637

  UHF NO Occupations:
  HONO-2 :    1B2u 1.9979978
  HONO-1 :    1B3g 1.0000000
  HONO-0 :    1B2g 1.0000000
  LUNO+0 :    2B3u 0.0020022
  LUNO+1 :    2B2u 0.0020022
  LUNO+2 :    3B1u 0.0006939
  LUNO+3 :    4 Ag 0.0003105

Computation Completed

Properties will be evaluated at   0.000000,   0.000000,   0.000000 [a0]

Properties computed using the B3LYP density matrix

 Multipole Moments:

 ------------------------------------------------------------------------------------
     Multipole            Electronic (a.u.)      Nuclear  (a.u.)        Total (a.u.)
 ------------------------------------------------------------------------------------

 L = 1.  Multiply by 2.5417464519 to convert [e a0] to [Debye]
 Dipole X            :          0.0000000            0.0000000            0.0000000
 Dipole Y            :          0.0000000            0.0000000            0.0000000
 Dipole Z            :          0.0000000            0.0000000            0.0000000
 Magnitude           :                                                    0.0000000

 L = 2.  Multiply by 1.3450342976 to convert [e a0^2] to [Debye ang]
 Quadrupole XX       :         -7.6072285            0.0000000           -7.6072285
 Quadrupole XY       :          0.0000000            0.0000000            0.0000000
 Quadrupole XZ       :          0.0000000            0.0000000            0.0000000
 Quadrupole YY       :         -7.6072285            0.0000000           -7.6072285
 Quadrupole YZ       :          0.0000000            0.0000000            0.0000000
 Quadrupole ZZ       :        -35.8423978           28.4017586           -7.4406392
 Traceless XX        :          9.4117231           -9.4672529           -0.0555298
 Traceless YY        :          9.4117231           -9.4672529           -0.0555298
 Traceless ZZ        :        -18.8234462           18.9345057            0.1110595

 ------------------------------------------------------------------------------------
  ==> Computing MBIS Charges <==

  Electron Count from Grid (Expected Number): 16.00000 (16.00000)
  Difference: -0.00000

  MBIS Charges: (a.u.)
   Center  Symbol  Z      Pop.       Charge
      1       O    8    7.999999    0.000001
      2       O    8    7.999999    0.000001

  MBIS Dipoles: [e a0]
   Center  Symbol  Z        X           Y           Z
      1       O    8   -0.000000    0.000000    0.024184
      2       O    8   -0.000000   -0.000000   -0.024184

  MBIS Quadrupoles: [e a0^2]
   Center  Symbol  Z      XX        XY        XZ        YY        YZ        ZZ
      1       O    8   -3.8036   -0.0000    0.0000   -3.8036   -0.0000   -3.6559
      2       O    8   -3.8036   -0.0000    0.0000   -3.8036    0.0000   -3.6559

  MBIS Octupoles: [e a0^3]
   Center  Symbol  Z      XXX       XXY       XXZ       XYY       XYZ       XZZ       YYY       YYZ       YZZ       ZZZ
      1       O    8   -0.0000   -0.0000   -0.0051   -0.0000   -0.0000   -0.0000    0.0000   -0.0051    0.0000   -0.2916
      2       O    8   -0.0000   -0.0000    0.0051   -0.0000    0.0000   -0.0000    0.0000    0.0051    0.0000    0.2916

  MBIS Radial Moments:
   Center  Symbol  Z      [a0^2]      [a0^3]      [a0^4]
      1       O    8   11.263108   21.169072   47.717805
      2       O    8   11.263108   21.169072   47.717805

  MBIS Valence Widths: [a0]
   Center  Symbol  Z     Width
      1       O    8    0.385360
      2       O    8    0.385360

*** tstop() called on Mac.lan at Sun Aug 10 17:01:54 2025
Module time:
	user time   =       3.93 seconds =       0.07 minutes
	system time =       2.35 seconds =       0.04 minutes
	total time  =          1 seconds =       0.02 minutes
Total time:
	user time   =      16.96 seconds =       0.28 minutes
	system time =       5.09 seconds =       0.08 minutes
	total time  =          3 seconds =       0.05 minutes

    Psi4 stopped on: Sunday, 10 August 2025 05:01PM
    Psi4 wall time for execution: 0:00:02.17

*** Psi4 exiting successfully. Buy a developer a beer!
