                               Psi4 1.9.1 release

  ==> Input File <==

--------------------------------------------------------------------------
molecule {
0 2
N           0.000000           0.000000           0.000000
C           0.000000           0.000000           1.680102
}

set {
basis              cc-pvtz
reference          uks
maxiter            500
DAMPING_PERCENTAGE 1
E_CONVERGENCE      1.0E-8
D_CONVERGENCE      1.0E-8
DIIS_MAX_VECS      400
MBIS_MAXITER       8000
guess              read
}

E, wfn = energy('b3lyp', restart_file='last_wfn', return_wfn=True)
properties('b3lyp','MBIS_CHARGES', wfn=wfn)
wfn.to_file('last_wfn')
--------------------------------------------------------------------------

    Molecular point group: c2v
  Charge       = 0
  Multiplicity = 2
  Basis Set: CC-PVTZ
    Blend: CC-PVTZ
  Basis Set: (CC-PVTZ AUX)
    Blend: CC-PVTZ-JKFIT
  @DF-UKS Final Energy:   -92.55274985171562
    Total Energy =                        -92.5527498517156175
 Dipole X            :          0.0000000            0.0000000            0.0000000
 Dipole Y            :          0.0000000            0.0000000            0.0000000
 Dipole Z            :          0.4205253            0.0022520            0.4227773
 Magnitude           :                                                    0.4227773
    Molecular point group: c2v

    Geometry (in Angstrom), charge = 0, multiplicity = 2:

       Center              X                  Y                   Z               Mass
    ------------   -----------------  -----------------  -----------------  -----------------
         N            0.000000000000     0.000000000000    -0.775340023128    14.003074004430
         C            0.000000000000     0.000000000000     0.904761976872    12.000000000000

  Charge       = 0
  Multiplicity = 2
  Basis Set: CC-PVTZ
    Blend: CC-PVTZ
  Basis Set: (CC-PVTZ AUX)
    Blend: CC-PVTZ-JKFIT

    Orbital Energies [Eh]
    ---------------------

    Alpha Occupied:

       1A1   -14.458571     2A1   -10.390315     3A1    -0.818007
       4A1    -0.581759     5A1    -0.396653     1B2    -0.321071
       1B1    -0.321071

    Alpha Virtual:

       2B1    -0.144491     2B2    -0.144491     6A1     0.025780
       7A1     0.254504     3B2     0.292943     3B1     0.292943
       8A1     0.324062     9A1     0.434259     4B2     0.491238
       4B1     0.491238     1A2     0.632896    10A1     0.632896
       5B2     0.675696     5B1     0.675696    11A1     0.836111
      12A1     1.003156    13A1     1.063264     2A2     1.063264
       6B2     1.294947     6B1     1.294947    14A1     1.465159
       7B2     1.913931     7B1     1.913931    15A1     2.151322
       8B1     2.571416     8B2     2.571416    16A1     2.601657
       3A2     2.607387    17A1     2.607387     9B2     2.624432
       9B1     2.624432    18A1     2.879153     4A2     2.879159
      10B2     2.894989    10B1     2.894989    19A1     3.039754
      11B2     3.060473    11B1     3.060473    20A1     3.312174
      21A1     3.854869    12B2     3.866944    12B1     3.866944
      22A1     3.921142     5A2     3.921144    13B2     4.194065
      13B1     4.194065     6A2     4.419384    23A1     4.419400
      24A1     4.511743    14B2     4.717360    14B1     4.717360
      25A1     5.466226    26A1     6.367483

    Beta Occupied:

       1A1   -14.449237     2A1   -10.381133     3A1    -0.784919
       4A1    -0.526158     1B2    -0.313477     1B1    -0.313477

    Beta Virtual:

       5A1    -0.244132     2B1    -0.131343     2B2    -0.131343
       6A1     0.073071     7A1     0.287079     3B2     0.297878
       3B1     0.297878     8A1     0.344348     9A1     0.461725
       4B2     0.493733     4B1     0.493733    10A1     0.637849
       1A2     0.637849     5B2     0.701610     5B1     0.701610
      11A1     0.848754    12A1     1.039812    13A1     1.063367
       2A2     1.063367     6B2     1.321015     6B1     1.321015
      14A1     1.502538     7B2     1.923261     7B1     1.923261
      15A1     2.196494     8B1     2.595932     8B2     2.595932
       3A2     2.629551    16A1     2.629551     9B2     2.629685
       9B1     2.629685    17A1     2.646723    18A1     2.888787
       4A2     2.888792    10B2     2.911629    10B1     2.911629
      19A1     3.098540    11B2     3.100384    11B1     3.100384
      20A1     3.350100    12B2     3.863039    12B1     3.863039
      21A1     3.889314    22A1     3.939369     5A2     3.939369
      13B2     4.227438    13B1     4.227438     6A2     4.419467
      23A1     4.419484    24A1     4.577899    14B2     4.763517
      14B1     4.763517    25A1     5.504219    26A1     6.387286

    Final Occupation by Irrep:
             A1    A2    B1    B2
    DOCC [     4,    0,    1,    1 ]
    SOCC [     1,    0,    0,    0 ]
    NA   [     5,    0,    1,    1 ]
    NB   [     4,    0,    1,    1 ]

  @DF-UKS Final Energy:   -92.55274984956296

   => Energetics <=

    Nuclear Repulsion Energy =             13.2286271001046387
    One-Electron Energy =                -150.5933063920744814
    Two-Electron Energy =                  54.3973055016071569
    DFT Exchange-Correlation Energy =      -9.5853760592002679
    Empirical Dispersion Energy =           0.0000000000000000
    VV10 Nonlocal Energy =                  0.0000000000000000
    Total Energy =                        -92.5527498495629715

  UHF NO Occupations:
  HONO-2 :    1 B2 1.9992042
  HONO-1 :    4 A1 1.9958640
  HONO-0 :    5 A1 1.0000000
  LUNO+0 :    6 A1 0.0041360
  LUNO+1 :    2 B1 0.0007958
  LUNO+2 :    2 B2 0.0007958
  LUNO+3 :    7 A1 0.0002992

Computation Completed

Properties will be evaluated at   0.000000,   0.000000,   0.000000 [a0]

Properties computed using the B3LYP density matrix

 Multipole Moments:

 ------------------------------------------------------------------------------------
     Multipole            Electronic (a.u.)      Nuclear  (a.u.)        Total (a.u.)
 ------------------------------------------------------------------------------------

 L = 1.  Multiply by 2.5417464519 to convert [e a0] to [Debye]
 Dipole X            :          0.0000000            0.0000000            0.0000000
 Dipole Y            :          0.0000000            0.0000000            0.0000000
 Dipole Z            :          0.4205268            0.0022520            0.4227788
 Magnitude           :                                                    0.4227788

 L = 2.  Multiply by 1.3450342976 to convert [e a0^2] to [Debye ang]
 Quadrupole XX       :         -9.1156300            0.0000000           -9.1156300
 Quadrupole XY       :          0.0000000            0.0000000            0.0000000
 Quadrupole XZ       :          0.0000000            0.0000000            0.0000000
 Quadrupole YY       :         -9.1156300            0.0000000           -9.1156300
 Quadrupole YZ       :          0.0000000            0.0000000            0.0000000
 Quadrupole ZZ       :        -39.8298609           32.5667916           -7.2630693
 Traceless XX        :         10.2380770          -10.8555972           -0.6175202
 Traceless YY        :         10.2380770          -10.8555972           -0.6175202
 Traceless ZZ        :        -20.4761539           21.7111944            1.2350405

 ------------------------------------------------------------------------------------
  ==> Computing MBIS Charges <==

  Electron Count from Grid (Expected Number): 13.00000 (13.00000)
  Difference: -0.00000

  MBIS Charges: (a.u.)
   Center  Symbol  Z      Pop.       Charge
      1       N    7    7.171332   -0.171332
      2       C    6    5.828667    0.171333

  MBIS Dipoles: [e a0]
   Center  Symbol  Z        X           Y           Z
      1       N    7   -0.000000    0.000000   -0.287407
      2       C    6   -0.000000    0.000000    0.166215

  MBIS Quadrupoles: [e a0^2]
   Center  Symbol  Z      XX        XY        XZ        YY        YZ        ZZ
      1       N    7   -4.6582    0.0000   -0.0000   -4.6582   -0.0000   -4.3715
      2       C    6   -4.4574    0.0000    0.0000   -4.4574    0.0000   -4.4352

  MBIS Octupoles: [e a0^3]
   Center  Symbol  Z      XXX       XXY       XXZ       XYY       XYZ       XZZ       YYY       YYZ       YZZ       ZZZ
      1       N    7   -0.0000   -0.0000   -0.4809   -0.0000    0.0000   -0.0000   -0.0000   -0.4809    0.0000   -1.3012
      2       C    6   -0.0000   -0.0000    0.4952   -0.0000   -0.0000   -0.0000   -0.0000    0.4952   -0.0000    1.1100

  MBIS Radial Moments:
   Center  Symbol  Z      [a0^2]      [a0^3]      [a0^4]
      1       N    7   13.687853   30.167199   79.146021
      2       C    6   13.350096   33.005037   96.908306

  MBIS Valence Widths: [a0]
   Center  Symbol  Z     Width
      1       N    7    0.458320
      2       C    6    0.523256

*** tstop() called on Mac.lan at Sun Aug 10 17:15:55 2025
Module time:
	user time   =       3.69 seconds =       0.06 minutes
	system time =       1.99 seconds =       0.03 minutes
	total time  =          0 seconds =       0.00 minutes
Total time:
	user time   =      21.38 seconds =       0.36 minutes
	system time =       4.25 seconds =       0.07 minutes
	total time  =          2 seconds =       0.03 minutes

    Psi4 stopped on: Sunday, 10 August 2025 05:15PM
    Psi4 wall time for execution: 0:00:02.48

*** Psi4 exiting successfully. Buy a developer a beer!
