                               Psi4 1.9.1 release

  ==> Input File <==

--------------------------------------------------------------------------
molecule {
0 3
C           0.000000           0.000000           0.000000
C           0.000000           0.000000           1.570141
}

set {
basis              cc-pvtz
reference          uks
maxiter            500
DAMPING_PERCENTAGE 1
E_CONVERGENCE      1.0E-8
D_CONVERGENCE      1.0E-8
DIIS_MAX_VECS      400
MBIS_MAXITER       8000
guess              read
}

E, wfn = energy('b3lyp', restart_file='last_wfn', return_wfn=True)
properties('b3lyp','MBIS_CHARGES', wfn=wfn)
wfn.to_file('last_wfn')
--------------------------------------------------------------------------

    Molecular point group: d2h
  Charge       = 0
  Multiplicity = 3
  Basis Set: CC-PVTZ
    Blend: CC-PVTZ
  Basis Set: (CC-PVTZ AUX)
    Blend: CC-PVTZ-JKFIT
  @DF-UKS Final Energy:   -75.89419185547766
    Total Energy =                        -75.8941918554776578
 Dipole X            :          0.0000000            0.0000000            0.0000000
 Dipole Y            :          0.0000000            0.0000000            0.0000000
 Dipole Z            :          0.0000000           -0.0000000           -0.0000000
 Magnitude           :                                                    0.0000000
    Molecular point group: d2h

    Geometry (in Angstrom), charge = 0, multiplicity = 3:

       Center              X                  Y                   Z               Mass
    ------------   -----------------  -----------------  -----------------  -----------------
         C            0.000000000000     0.000000000000    -0.785070500000    12.000000000000
         C            0.000000000000     0.000000000000     0.785070500000    12.000000000000

  Charge       = 0
  Multiplicity = 3
  Basis Set: CC-PVTZ
    Blend: CC-PVTZ
  Basis Set: (CC-PVTZ AUX)
    Blend: CC-PVTZ-JKFIT

    Orbital Energies [Eh]
    ---------------------

    Alpha Occupied:

       1Ag   -10.329925     1B1u  -10.329635     2Ag    -0.750777
       2B1u   -0.494001     3Ag    -0.353082     1B3u   -0.330849
       1B2u   -0.300229

    Alpha Virtual:

       1B2g   -0.111252     1B3g   -0.083730     3B1u    0.129864
       2B3u    0.270418     4Ag     0.281410     2B2u    0.285271
       4B1u    0.290093     5Ag     0.324611     2B2g    0.342017
       2B3g    0.354750     1B1g    0.558702     6Ag     0.559251
       5B1u    0.612651     3B3u    0.625401     3B2u    0.648226
       1Au     0.789162     6B1u    0.789478     3B2g    1.067888
       3B3g    1.084682     7Ag     1.086730     7B1u    1.097941
       4B3u    1.860990     4B2u    1.884048     8Ag     1.954634
       4B2g    2.014287     4B3g    2.040054     5B3u    2.366539
       9Ag     2.375162     2B1g    2.375199     5B2u    2.392102
      10Ag     2.489574     8B1u    2.497033     6B3u    2.555826
       6B2u    2.555947     5B2g    2.723628     5B3g    2.723719
       3B1g    2.873421    11Ag     2.873606     9B1u    2.910021
       2Au     2.926399    10B1u    2.927526     6B2g    3.027954
       6B3g    3.050130     3Au     3.129245    11B1u    3.130104
       7B3u    3.132797     7B2u    3.156895    12B1u    3.474278
      12Ag     3.717300    13Ag     3.863965     7B2g    3.868885
       7B3g    3.893022    13B1u    7.117489

    Beta Occupied:

       1Ag   -10.314528     1B1u  -10.314396     2Ag    -0.687313
       2B1u   -0.410491     1B2u   -0.283688

    Beta Virtual:

       3Ag    -0.203822     1B3u   -0.194821     1B3g   -0.063917
       1B2g   -0.033384     3B1u    0.156182     2B2u    0.291032
       2B3u    0.301519     4Ag     0.308038     4B1u    0.351791
       5Ag     0.354806     2B3g    0.360618     2B2g    0.369465
       1B1g    0.584274     6Ag     0.586564     5B1u    0.631813
       3B2u    0.675763     3B3u    0.683233     1Au     0.812332
       6B1u    0.814322     3B3g    1.107464     3B2g    1.110798
       7Ag     1.129264     7B1u    1.137316     4B2u    1.898047
       4B3u    1.911468     8Ag     2.005211     4B3g    2.050971
       4B2g    2.062230     2B1g    2.417216     9Ag     2.419490
       5B2u    2.420603     5B3u    2.431110     8B1u    2.541565
      10Ag     2.550650     6B2u    2.587146     6B3u    2.587933
       5B3g    2.754458     5B2g    2.755253     3B1g    2.913187
      11Ag     2.917699     2Au     2.960920     9B1u    2.963387
      10B1u    2.974909     6B3g    3.093120     6B2g    3.106961
       3Au     3.173833    11B1u    3.176413     7B2u    3.201422
       7B3u    3.212502    12B1u    3.531513    12Ag     3.772986
      13Ag     3.900897     7B3g    3.925484     7B2g    3.932696
      13B1u    7.148983

    Final Occupation by Irrep:
             Ag   B1g   B2g   B3g    Au   B1u   B2u   B3u
    DOCC [     2,    0,    0,    0,    0,    2,    1,    0 ]
    SOCC [     1,    0,    0,    0,    0,    0,    0,    1 ]
    NA   [     3,    0,    0,    0,    0,    2,    1,    1 ]
    NB   [     2,    0,    0,    0,    0,    2,    1,    0 ]

  @DF-UKS Final Energy:   -75.89419185546768

   => Energetics <=

    Nuclear Repulsion Energy =             12.1329100915905030
    One-Electron Energy =                -125.0630125273001596
    Two-Electron Energy =                  45.4789307310516904
    DFT Exchange-Correlation Energy =      -8.4430201508097227
    Empirical Dispersion Energy =           0.0000000000000000
    VV10 Nonlocal Energy =                  0.0000000000000000
    Total Energy =                        -75.8941918554676818

  UHF NO Occupations:
  HONO-2 :    2B1u 1.9979741
  HONO-1 :    1B3u 1.0000000
  HONO-0 :    3 Ag 1.0000000
  LUNO+0 :    3B1u 0.0020259
  LUNO+1 :    4 Ag 0.0004132
  LUNO+2 :    2B2u 0.0001749
  LUNO+3 :    4B1u 0.0000006

Computation Completed

Properties will be evaluated at   0.000000,   0.000000,   0.000000 [a0]

Properties computed using the B3LYP density matrix

 Multipole Moments:

 ------------------------------------------------------------------------------------
     Multipole            Electronic (a.u.)      Nuclear  (a.u.)        Total (a.u.)
 ------------------------------------------------------------------------------------

 L = 1.  Multiply by 2.5417464519 to convert [e a0] to [Debye]
 Dipole X            :          0.0000000            0.0000000            0.0000000
 Dipole Y            :          0.0000000            0.0000000            0.0000000
 Dipole Z            :          0.0000000           -0.0000000           -0.0000000
 Magnitude           :                                                    0.0000000

 L = 2.  Multiply by 1.3450342976 to convert [e a0^2] to [Debye ang]
 Quadrupole XX       :         -8.3460947            0.0000000           -8.3460947
 Quadrupole XY       :          0.0000000            0.0000000            0.0000000
 Quadrupole XZ       :          0.0000000            0.0000000            0.0000000
 Quadrupole YY       :         -9.9462227            0.0000000           -9.9462227
 Quadrupole YZ       :          0.0000000            0.0000000            0.0000000
 Quadrupole ZZ       :        -35.2233358           26.4116965           -8.8116394
 Traceless XX        :          9.4924564           -8.8038988            0.6885576
 Traceless YY        :          7.8923283           -8.8038988           -0.9115705
 Traceless ZZ        :        -17.3847848           17.6077976            0.2230129

 ------------------------------------------------------------------------------------
  ==> Computing MBIS Charges <==

  Electron Count from Grid (Expected Number): 12.00000 (12.00000)
  Difference:  0.00000

  MBIS Charges: (a.u.)
   Center  Symbol  Z      Pop.       Charge
      1       C    6    6.000000   -0.000000
      2       C    6    6.000000   -0.000000

  MBIS Dipoles: [e a0]
   Center  Symbol  Z        X           Y           Z
      1       C    6   -0.000000    0.000000   -0.124493
      2       C    6   -0.000000    0.000000    0.124493

  MBIS Quadrupoles: [e a0^2]
   Center  Symbol  Z      XX        XY        XZ        YY        YZ        ZZ
      1       C    6   -4.1730    0.0000   -0.0000   -4.9731   -0.0000   -4.7752
      2       C    6   -4.1730    0.0000    0.0000   -4.9731    0.0000   -4.7752

  MBIS Octupoles: [e a0^3]
   Center  Symbol  Z      XXX       XXY       XXZ       XYY       XYZ       XZZ       YYY       YYZ       YZZ       ZZZ
      1       C    6   -0.0000   -0.0000   -0.1640   -0.0000    0.0000   -0.0000    0.0000   -0.4204    0.0000   -0.7435
      2       C    6   -0.0000   -0.0000    0.1640   -0.0000   -0.0000   -0.0000    0.0000    0.4204    0.0000    0.7435

  MBIS Radial Moments:
   Center  Symbol  Z      [a0^2]      [a0^3]      [a0^4]
      1       C    6   13.921366   34.462924   101.597965
      2       C    6   13.921366   34.462924   101.597965

  MBIS Valence Widths: [a0]
   Center  Symbol  Z     Width
      1       C    6    0.523166
      2       C    6    0.523166

*** tstop() called on Mac.lan at Sun Aug 10 17:04:28 2025
Module time:
	user time   =       4.21 seconds =       0.07 minutes
	system time =       2.96 seconds =       0.05 minutes
	total time  =          1 seconds =       0.02 minutes
Total time:
	user time   =      17.90 seconds =       0.30 minutes
	system time =       4.86 seconds =       0.08 minutes
	total time  =          2 seconds =       0.03 minutes

    Psi4 stopped on: Sunday, 10 August 2025 05:04PM
    Psi4 wall time for execution: 0:00:02.22

*** Psi4 exiting successfully. Buy a developer a beer!
