                               Psi4 1.9.1 release

  ==> Input File <==

--------------------------------------------------------------------------
molecule {
-1 1
N           0.000000           0.000000           0.000000
C           0.000000           0.000000           0.739356
}

set {
basis              cc-pvtz
reference          uks
maxiter            500
DAMPING_PERCENTAGE 1
E_CONVERGENCE      1.0E-8
D_CONVERGENCE      1.0E-8
DIIS_MAX_VECS      400
MBIS_MAXITER       8000
guess              read
}

E, wfn = energy('b3lyp', restart_file='last_wfn', return_wfn=True)
properties('b3lyp','MBIS_CHARGES', wfn=wfn)
wfn.to_file('last_wfn')
--------------------------------------------------------------------------

    Molecular point group: c2v
  Charge       = -1
  Multiplicity = 1
  Basis Set: CC-PVTZ
    Blend: CC-PVTZ
  Basis Set: (CC-PVTZ AUX)
    Blend: CC-PVTZ-JKFIT
  @DF-UKS Final Energy:   -91.79209312599536
    Total Energy =                        -91.7920931259953647
 Dipole X            :          0.0000000            0.0000000            0.0000000
 Dipole Y            :          0.0000000            0.0000000            0.0000000
 Dipole Z            :         -0.4712393            0.0009910           -0.4702483
 Magnitude           :                                                    0.4702483
    Molecular point group: c2v

    Geometry (in Angstrom), charge = -1, multiplicity = 1:

       Center              X                  Y                   Z               Mass
    ------------   -----------------  -----------------  -----------------  -----------------
         N            0.000000000000     0.000000000000    -0.341200890267    14.003074004430
         C            0.000000000000     0.000000000000     0.398155109733    12.000000000000

  Charge       = -1
  Multiplicity = 1
  Basis Set: CC-PVTZ
    Blend: CC-PVTZ
  Basis Set: (CC-PVTZ AUX)
    Blend: CC-PVTZ-JKFIT

    Orbital Energies [Eh]
    ---------------------

    Alpha Occupied:

       1A1   -13.906754     2A1    -9.770797     3A1    -0.627201
       1B1    -0.180688     1B2    -0.180688     4A1    -0.038895
       5A1     0.028573

    Alpha Virtual:

       2B1     0.419447     2B2     0.419447     6A1     0.431788
       7A1     0.549207     3B1     0.587770     3B2     0.587770
       8A1     0.746270     4B1     0.879578     4B2     0.879578
       1A2     0.956868     9A1     0.956868    10A1     1.185679
       5B1     1.362243     5B2     1.362243    11A1     1.447532
       2A2     1.601186    12A1     1.601186     6B1     1.795027
       6B2     1.795027    13A1     1.890347     7B2     2.332127
       7B1     2.332127    14A1     2.640564    15A1     2.982137
       8B1     2.984641     8B2     2.984641     3A2     3.206260
      16A1     3.206260     9B1     3.339600     9B2     3.339600
      17A1     3.375662    18A1     3.412694     4A2     3.412694
      10B1     3.767286    10B2     3.767286    19A1     3.943326
      11B1     4.247017    11B2     4.247017    12B1     4.526595
      12B2     4.526595     5A2     4.880086    20A1     4.880086
      21A1     5.146742    13B2     5.661004    13B1     5.661004
      22A1     5.876844     6A2     5.876844    23A1     6.147162
      14B1     7.069465    14B2     7.069465    24A1     7.342417
      25A1     8.315561    26A1    19.300279

    Beta Occupied:

       1A1   -13.906754     2A1    -9.770797     3A1    -0.627201
       1B1    -0.180688     1B2    -0.180688     4A1    -0.038895
       5A1     0.028573

    Beta Virtual:

       2B1     0.419447     2B2     0.419447     6A1     0.431788
       7A1     0.549207     3B1     0.587770     3B2     0.587770
       8A1     0.746270     4B1     0.879578     4B2     0.879578
       1A2     0.956868     9A1     0.956868    10A1     1.185679
       5B1     1.362243     5B2     1.362243    11A1     1.447532
       2A2     1.601186    12A1     1.601186     6B1     1.795027
       6B2     1.795027    13A1     1.890347     7B2     2.332127
       7B1     2.332127    14A1     2.640564    15A1     2.982137
       8B1     2.984641     8B2     2.984641     3A2     3.206260
      16A1     3.206260     9B1     3.339600     9B2     3.339600
      17A1     3.375662    18A1     3.412694     4A2     3.412694
      10B1     3.767286    10B2     3.767286    19A1     3.943326
      11B1     4.247017    11B2     4.247017    12B1     4.526595
      12B2     4.526595     5A2     4.880086    20A1     4.880086
      21A1     5.146742    13B2     5.661004    13B1     5.661004
      22A1     5.876844     6A2     5.876844    23A1     6.147162
      14B1     7.069465    14B2     7.069465    24A1     7.342417
      25A1     8.315561    26A1    19.300279

    Final Occupation by Irrep:
             A1    A2    B1    B2
    DOCC [     5,    0,    1,    1 ]
    SOCC [     0,    0,    0,    0 ]
    NA   [     5,    0,    1,    1 ]
    NB   [     5,    0,    1,    1 ]

  @DF-UKS Final Energy:   -91.79209312628402

   => Energetics <=

    Nuclear Repulsion Energy =             30.0605430241183065
    One-Electron Energy =                -186.6899646986325081
    Two-Electron Energy =                  75.5032206504991450
    DFT Exchange-Correlation Energy =     -10.6658921022689768
    Empirical Dispersion Energy =           0.0000000000000000
    VV10 Nonlocal Energy =                  0.0000000000000000
    Total Energy =                        -91.7920931262840156

  UHF NO Occupations:
  HONO-2 :    1 B2 2.0000000
  HONO-1 :    5 A1 2.0000000
  HONO-0 :    1 B1 2.0000000
  LUNO+0 :    6 A1 0.0000000
  LUNO+1 :    7 A1 0.0000000
  LUNO+2 :    8 A1 0.0000000
  LUNO+3 :    9 A1 0.0000000

Computation Completed

Properties will be evaluated at   0.000000,   0.000000,   0.000000 [a0]

Properties computed using the B3LYP density matrix

 Multipole Moments:

 ------------------------------------------------------------------------------------
     Multipole            Electronic (a.u.)      Nuclear  (a.u.)        Total (a.u.)
 ------------------------------------------------------------------------------------

 L = 1.  Multiply by 2.5417464519 to convert [e a0] to [Debye]
 Dipole X            :          0.0000000            0.0000000            0.0000000
 Dipole Y            :          0.0000000            0.0000000            0.0000000
 Dipole Z            :         -0.4712393            0.0009910           -0.4702483
 Magnitude           :                                                    0.4702483

 L = 2.  Multiply by 1.3450342976 to convert [e a0^2] to [Debye ang]
 Quadrupole XX       :         -8.9779038            0.0000000           -8.9779038
 Quadrupole XY       :          0.0000000            0.0000000            0.0000000
 Quadrupole XZ       :          0.0000000            0.0000000            0.0000000
 Quadrupole YY       :         -8.9779038            0.0000000           -8.9779038
 Quadrupole YZ       :          0.0000000            0.0000000            0.0000000
 Quadrupole ZZ       :        -19.0138337            6.3068265          -12.7070072
 Traceless XX        :          3.3453100           -2.1022755            1.2430345
 Traceless YY        :          3.3453100           -2.1022755            1.2430345
 Traceless ZZ        :         -6.6906199            4.2045510           -2.4860689

 ------------------------------------------------------------------------------------
  ==> Computing MBIS Charges <==

  Electron Count from Grid (Expected Number): 14.00000 (14.00000)
  Difference: -0.00000

  MBIS Charges: (a.u.)
   Center  Symbol  Z      Pop.       Charge
      1       N    7    7.362703   -0.362703
      2       C    6    6.637296   -0.637296

  MBIS Dipoles: [e a0]
   Center  Symbol  Z        X           Y           Z
      1       N    7    0.000000   -0.000000    0.116882
      2       C    6   -0.000000   -0.000000   -0.341488

  MBIS Quadrupoles: [e a0^2]
   Center  Symbol  Z      XX        XY        XZ        YY        YZ        ZZ
      1       N    7   -3.7672   -0.0000   -0.0000   -3.7672   -0.0000   -4.6842
      2       C    6   -5.2107    0.0000    0.0000   -5.2107    0.0000   -6.8466

  MBIS Octupoles: [e a0^3]
   Center  Symbol  Z      XXX       XXY       XXZ       XYY       XYZ       XZZ       YYY       YYZ       YZZ       ZZZ
      1       N    7   -0.0000   -0.0000    0.3290   -0.0000    0.0000   -0.0000   -0.0000    0.3290    0.0000    1.1779
      2       C    6   -0.0000   -0.0000   -0.8060   -0.0000    0.0000   -0.0000    0.0000   -0.8060    0.0000   -1.9262

  MBIS Radial Moments:
   Center  Symbol  Z      [a0^2]      [a0^3]      [a0^4]
      1       N    7   12.218588   25.592750   64.733708
      2       C    6   17.268056   46.206914   146.560064

  MBIS Valence Widths: [a0]
   Center  Symbol  Z     Width
      1       N    7    0.419850
      2       C    6    0.539182

*** tstop() called on Mac.lan at Sun Aug 10 17:39:36 2025
Module time:
	user time   =       3.92 seconds =       0.07 minutes
	system time =       2.62 seconds =       0.04 minutes
	total time  =          0 seconds =       0.00 minutes
Total time:
	user time   =      18.35 seconds =       0.31 minutes
	system time =       4.69 seconds =       0.08 minutes
	total time  =          2 seconds =       0.03 minutes

    Psi4 stopped on: Sunday, 10 August 2025 05:39PM
    Psi4 wall time for execution: 0:00:02.23

*** Psi4 exiting successfully. Buy a developer a beer!
