                               Psi4 1.9.1 release

  ==> Input File <==

--------------------------------------------------------------------------
molecule {
-1 2
C           0.000000           0.000000           0.000000
C           0.000000           0.000000           0.911615
}

set {
basis              cc-pvtz
reference          uks
maxiter            500
DAMPING_PERCENTAGE 1
E_CONVERGENCE      1.0E-8
D_CONVERGENCE      1.0E-8
DIIS_MAX_VECS      400
MBIS_MAXITER       8000
guess              read
}

E, wfn = energy('b3lyp', restart_file='last_wfn', return_wfn=True)
properties('b3lyp','MBIS_CHARGES', wfn=wfn)
wfn.to_file('last_wfn')
--------------------------------------------------------------------------

    Molecular point group: d2h
  Charge       = -1
  Multiplicity = 2
  Basis Set: CC-PVTZ
    Blend: CC-PVTZ
  Basis Set: (CC-PVTZ AUX)
    Blend: CC-PVTZ-JKFIT
  @DF-UKS Final Energy:   -75.70308867825295
    Total Energy =                        -75.7030886782529535
 Dipole X            :          0.0000000            0.0000000            0.0000000
 Dipole Y            :          0.0000000            0.0000000            0.0000000
 Dipole Z            :          0.0000000           -0.0000000           -0.0000000
 Magnitude           :                                                    0.0000000
    Molecular point group: d2h

    Geometry (in Angstrom), charge = -1, multiplicity = 2:

       Center              X                  Y                   Z               Mass
    ------------   -----------------  -----------------  -----------------  -----------------
         C            0.000000000000     0.000000000000    -0.455807500000    12.000000000000
         C            0.000000000000     0.000000000000     0.455807500000    12.000000000000

  Charge       = -1
  Multiplicity = 2
  Basis Set: CC-PVTZ
    Blend: CC-PVTZ
  Basis Set: (CC-PVTZ AUX)
    Blend: CC-PVTZ-JKFIT

    Orbital Energies [Eh]
    ---------------------

    Alpha Occupied:

       1Ag    -9.838568     1B1u   -9.808380     2Ag    -0.506947
       1B3u   -0.071747     1B2u   -0.071747     2B1u   -0.041815
       3Ag    -0.019581

    Alpha Virtual:

       1B3g    0.384563     1B2g    0.384563     3B1u    0.404212
       4Ag     0.484130     2B3u    0.500333     2B2u    0.500333
       5Ag     0.660272     2B3g    0.721131     2B2g    0.721131
       4B1u    0.879256     6Ag     0.883202     1B1g    0.883202
       3B2u    1.181421     3B3u    1.181421     5B1u    1.207920
       1Au     1.235265     6B1u    1.235265     7Ag     1.359892
       3B3g    1.443865     3B2g    1.443865     4B2u    2.140215
       4B3u    2.140215     7B1u    2.415371     8Ag     2.562558
       4B3g    2.724127     4B2g    2.724127     5B3u    2.776437
       5B2u    2.776437     8B1u    2.811370     9Ag     2.833440
       2B1g    2.833441     6B3u    3.047297     6B2u    3.047297
      10Ag     3.196530     2Au     3.299139     9B1u    3.299139
       5B3g    3.334517     5B2g    3.334517     3B1g    3.408245
      11Ag     3.408245     6B2g    3.415917     6B3g    3.415917
      12Ag     3.791413    10B1u    3.940209     7B3u    4.268519
       7B2u    4.268519    11B1u    4.467715     3Au     4.467716
      12B1u    5.590516     7B3g    5.699029     7B2g    5.699029
      13Ag     6.531732    13B1u   18.951277

    Beta Occupied:

       1Ag    -9.827342     1B1u   -9.798402     2Ag    -0.471195
       1B3u   -0.061434     1B2u   -0.061434     2B1u    0.020491

    Beta Virtual:

       3Ag     0.115557     1B3g    0.396062     1B2g    0.396062
       3B1u    0.416626     4Ag     0.504931     2B3u    0.505594
       2B2u    0.505594     5Ag     0.685612     2B3g    0.734461
       2B2g    0.734461     6Ag     0.886189     1B1g    0.886189
       4B1u    0.900338     3B2u    1.204518     3B3u    1.204518
       5B1u    1.231433     1Au     1.243545     6B1u    1.243545
       7Ag     1.394348     3B3g    1.459162     3B2g    1.459162
       4B2u    2.150308     4B3u    2.150308     7B1u    2.470137
       8Ag     2.591541     4B3g    2.733547     4B2g    2.733547
       5B3u    2.777931     5B2u    2.777931     8B1u    2.830316
       9Ag     2.838958     2B1g    2.838958     6B3u    3.091732
       6B2u    3.091732    10Ag     3.252725     2Au     3.318761
       9B1u    3.318761     5B3g    3.373595     5B2g    3.373595
       6B2g    3.421059     6B3g    3.421059     3B1g    3.428079
      11Ag     3.428079    12Ag     3.822872    10B1u    3.981142
       7B3u    4.298088     7B2u    4.298088    11B1u    4.478072
       3Au     4.478073    12B1u    5.636393     7B3g    5.728591
       7B2g    5.728591    13Ag     6.556234    13B1u   18.968619

    Final Occupation by Irrep:
             Ag   B1g   B2g   B3g    Au   B1u   B2u   B3u
    DOCC [     2,    0,    0,    0,    0,    2,    1,    1 ]
    SOCC [     1,    0,    0,    0,    0,    0,    0,    0 ]
    NA   [     3,    0,    0,    0,    0,    2,    1,    1 ]
    NB   [     2,    0,    0,    0,    0,    2,    1,    1 ]

  @DF-UKS Final Energy:   -75.70308867990150

   => Energetics <=

    Nuclear Repulsion Energy =             20.8973959227524837
    One-Electron Energy =                -146.0729935014650778
    Two-Electron Energy =                  58.5992680491017239
    DFT Exchange-Correlation Energy =      -9.1267591502906207
    Empirical Dispersion Energy =           0.0000000000000000
    VV10 Nonlocal Energy =                  0.0000000000000000
    Total Energy =                        -75.7030886799014979

  UHF NO Occupations:
  HONO-2 :    2 Ag 1.9997299
  HONO-1 :    2B1u 1.9984256
  HONO-0 :    3 Ag 1.0000000
  LUNO+0 :    3B1u 0.0015744
  LUNO+1 :    4 Ag 0.0002701
  LUNO+2 :    2B3u 0.0000603
  LUNO+3 :    2B2u 0.0000603

Computation Completed

Properties will be evaluated at   0.000000,   0.000000,   0.000000 [a0]

Properties computed using the B3LYP density matrix

 Multipole Moments:

 ------------------------------------------------------------------------------------
     Multipole            Electronic (a.u.)      Nuclear  (a.u.)        Total (a.u.)
 ------------------------------------------------------------------------------------

 L = 1.  Multiply by 2.5417464519 to convert [e a0] to [Debye]
 Dipole X            :          0.0000000            0.0000000            0.0000000
 Dipole Y            :          0.0000000            0.0000000            0.0000000
 Dipole Z            :          0.0000000           -0.0000000           -0.0000000
 Magnitude           :                                                    0.0000000

 L = 2.  Multiply by 1.3450342976 to convert [e a0^2] to [Debye ang]
 Quadrupole XX       :        -10.1708222            0.0000000          -10.1708222
 Quadrupole XY       :          0.0000000            0.0000000            0.0000000
 Quadrupole XZ       :          0.0000000            0.0000000            0.0000000
 Quadrupole YY       :        -10.1708222            0.0000000          -10.1708222
 Quadrupole YZ       :          0.0000000            0.0000000            0.0000000
 Quadrupole ZZ       :        -22.1312422            8.9031136          -13.2281286
 Traceless XX        :          3.9868067           -2.9677045            1.0191021
 Traceless YY        :          3.9868067           -2.9677045            1.0191021
 Traceless ZZ        :         -7.9736133            5.9354091           -2.0382042

 ------------------------------------------------------------------------------------
  ==> Computing MBIS Charges <==

  Electron Count from Grid (Expected Number): 13.00000 (13.00000)
  Difference:  0.00000

  MBIS Charges: (a.u.)
   Center  Symbol  Z      Pop.       Charge
      1       C    6    6.500000   -0.500000
      2       C    6    6.500000   -0.500000

  MBIS Dipoles: [e a0]
   Center  Symbol  Z        X           Y           Z
      1       C    6   -0.000000    0.000000    0.070560
      2       C    6   -0.000000    0.000000   -0.070560

  MBIS Quadrupoles: [e a0^2]
   Center  Symbol  Z      XX        XY        XZ        YY        YZ        ZZ
      1       C    6   -5.0854    0.0000    0.0000   -5.0854   -0.0000   -6.1215
      2       C    6   -5.0854    0.0000   -0.0000   -5.0854    0.0000   -6.1215

  MBIS Octupoles: [e a0^3]
   Center  Symbol  Z      XXX       XXY       XXZ       XYY       XYZ       XZZ       YYY       YYZ       YZZ       ZZZ
      1       C    6   -0.0000   -0.0000    0.4167   -0.0000    0.0000   -0.0000    0.0000    0.4167    0.0000    1.6971
      2       C    6   -0.0000   -0.0000   -0.4167   -0.0000   -0.0000   -0.0000    0.0000   -0.4167    0.0000   -1.6971

  MBIS Radial Moments:
   Center  Symbol  Z      [a0^2]      [a0^3]      [a0^4]
      1       C    6   16.292369   42.722978   134.469517
      2       C    6   16.292369   42.722978   134.469517

  MBIS Valence Widths: [a0]
   Center  Symbol  Z     Width
      1       C    6    0.530533
      2       C    6    0.530533

*** tstop() called on Mac.lan at Sun Aug 10 17:29:51 2025
Module time:
	user time   =       3.52 seconds =       0.06 minutes
	system time =       2.17 seconds =       0.04 minutes
	total time  =          1 seconds =       0.02 minutes
Total time:
	user time   =      15.75 seconds =       0.26 minutes
	system time =       4.57 seconds =       0.08 minutes
	total time  =          2 seconds =       0.03 minutes

    Psi4 stopped on: Sunday, 10 August 2025 05:29PM
    Psi4 wall time for execution: 0:00:01.98

*** Psi4 exiting successfully. Buy a developer a beer!
