                               Psi4 1.9.1 release

  ==> Input File <==

--------------------------------------------------------------------------
molecule {
-1 2
C           0.000000           0.000000           0.000000
C           0.000000           0.000000           1.206511
}

set {
basis              cc-pvtz
reference          uks
maxiter            500
DAMPING_PERCENTAGE 1
E_CONVERGENCE      1.0E-8
D_CONVERGENCE      1.0E-8
DIIS_MAX_VECS      400
MBIS_MAXITER       8000
guess              read
}

E, wfn = energy('b3lyp', restart_file='last_wfn', return_wfn=True)
properties('b3lyp','MBIS_CHARGES', wfn=wfn)
wfn.to_file('last_wfn')
--------------------------------------------------------------------------

    Molecular point group: d2h
  Charge       = -1
  Multiplicity = 2
  Basis Set: CC-PVTZ
    Blend: CC-PVTZ
  Basis Set: (CC-PVTZ AUX)
    Blend: CC-PVTZ-JKFIT
  @DF-UKS Final Energy:   -76.05500584223208
    Total Energy =                        -76.0550058422320774
 Dipole X            :          0.0000000            0.0000000            0.0000000
 Dipole Y            :          0.0000000            0.0000000            0.0000000
 Dipole Z            :          0.0000000            0.0000000            0.0000000
 Magnitude           :                                                    0.0000000
    Molecular point group: d2h

    Geometry (in Angstrom), charge = -1, multiplicity = 2:

       Center              X                  Y                   Z               Mass
    ------------   -----------------  -----------------  -----------------  -----------------
         C            0.000000000000     0.000000000000    -0.603255500000    12.000000000000
         C            0.000000000000     0.000000000000     0.603255500000    12.000000000000

  Charge       = -1
  Multiplicity = 2
  Basis Set: CC-PVTZ
    Blend: CC-PVTZ
  Basis Set: (CC-PVTZ AUX)
    Blend: CC-PVTZ-JKFIT

    Orbital Energies [Eh]
    ---------------------

    Alpha Occupied:

       1Ag    -9.902431     1B1u   -9.899924     2Ag    -0.479538
       2B1u   -0.111045     3Ag    -0.035378     1B3u   -0.019297
       1B2u   -0.019297

    Alpha Virtual:

       1B2g    0.304791     1B3g    0.304791     3B1u    0.395944
       4Ag     0.499234     2B3u    0.525492     2B2u    0.525492
       5Ag     0.623907     2B2g    0.643621     2B3g    0.643621
       4B1u    0.803694     6Ag     0.864284     1B1g    0.864284
       5B1u    0.965793     3B2u    1.068699     3B3u    1.068699
       6B1u    1.165821     1Au     1.165821     3B2g    1.412760
       3B3g    1.412760     7Ag     1.413279     7B1u    1.755885
       4B2u    2.234876     4B3u    2.234876     8Ag     2.389245
       4B3g    2.539919     4B2g    2.539919     8B1u    2.633540
       9Ag     2.754176     2B1g    2.754176     5B3u    2.809236
       5B2u    2.809236     6B3u    2.831157     6B2u    2.831157
      10Ag     3.058627     5B2g    3.220023     5B3g    3.220023
      11Ag     3.270249     3B1g    3.270249     6B2g    3.276305
       6B3g    3.276305     9B1u    3.348608     2Au     3.348608
      10B1u    3.648714     7B2u    3.814655     7B3u    3.814655
      12Ag     3.886836    11B1u    3.887368     3Au     3.887368
      12B1u    4.401215     7B2g    5.026398     7B3g    5.026398
      13Ag     5.315453    13B1u   13.676013

    Beta Occupied:

       1Ag    -9.893701     1B1u   -9.891491     2Ag    -0.448043
       2B1u   -0.048369     1B3u   -0.010796     1B2u   -0.010796

    Beta Virtual:

       3Ag     0.096273     1B2g    0.318134     1B3g    0.318134
       3B1u    0.406878     4Ag     0.522120     2B3u    0.529883
       2B2u    0.529883     5Ag     0.645442     2B2g    0.651121
       2B3g    0.651121     4B1u    0.830468     6Ag     0.866218
       1B1g    0.866218     5B1u    0.990110     3B2u    1.092637
       3B3u    1.092637     6B1u    1.172471     1Au     1.172471
       3B2g    1.431422     3B3g    1.431422     7Ag     1.446842
       7B1u    1.790969     4B2u    2.241770     4B3u    2.241770
       8Ag     2.417772     4B3g    2.545398     4B2g    2.545398
       8B1u    2.669585     2B1g    2.766131     9Ag     2.766131
       5B3u    2.811111     5B2u    2.811111     6B3u    2.865415
       6B2u    2.865415    10Ag     3.119751     5B2g    3.222983
       5B3g    3.222983    11Ag     3.282733     3B1g    3.282733
       6B2g    3.322352     6B3g    3.322352     9B1u    3.359882
       2Au     3.359882    10B1u    3.687462     7B2u    3.851987
       7B3u    3.851987    11B1u    3.902242     3Au     3.902242
      12Ag     3.915811    12B1u    4.448662     7B2g    5.053647
       7B3g    5.053647    13Ag     5.340240    13B1u   13.691930

    Final Occupation by Irrep:
             Ag   B1g   B2g   B3g    Au   B1u   B2u   B3u
    DOCC [     2,    0,    0,    0,    0,    2,    1,    1 ]
    SOCC [     1,    0,    0,    0,    0,    0,    0,    0 ]
    NA   [     3,    0,    0,    0,    0,    2,    1,    1 ]
    NB   [     2,    0,    0,    0,    0,    2,    1,    1 ]

  @DF-UKS Final Energy:   -76.05500584131734

   => Energetics <=

    Nuclear Repulsion Energy =             15.7896443415103569
    One-Electron Energy =                -136.5507330907793460
    Two-Electron Energy =                  53.5427251472277561
    DFT Exchange-Correlation Energy =      -8.8366422392761024
    Empirical Dispersion Energy =           0.0000000000000000
    VV10 Nonlocal Energy =                  0.0000000000000000
    Total Energy =                        -76.0550058413173389

  UHF NO Occupations:
  HONO-2 :    2 Ag 1.9997303
  HONO-1 :    2B1u 1.9985747
  HONO-0 :    3 Ag 1.0000000
  LUNO+0 :    3B1u 0.0014253
  LUNO+1 :    4 Ag 0.0002697
  LUNO+2 :    2B2u 0.0000957
  LUNO+3 :    2B3u 0.0000957

Computation Completed

Properties will be evaluated at   0.000000,   0.000000,   0.000000 [a0]

Properties computed using the B3LYP density matrix

 Multipole Moments:

 ------------------------------------------------------------------------------------
     Multipole            Electronic (a.u.)      Nuclear  (a.u.)        Total (a.u.)
 ------------------------------------------------------------------------------------

 L = 1.  Multiply by 2.5417464519 to convert [e a0] to [Debye]
 Dipole X            :          0.0000000            0.0000000            0.0000000
 Dipole Y            :          0.0000000            0.0000000            0.0000000
 Dipole Z            :          0.0000000            0.0000000            0.0000000
 Magnitude           :                                                    0.0000000

 L = 2.  Multiply by 1.3450342976 to convert [e a0^2] to [Debye ang]
 Quadrupole XX       :        -11.3231144            0.0000000          -11.3231144
 Quadrupole XY       :          0.0000000            0.0000000            0.0000000
 Quadrupole XZ       :          0.0000000            0.0000000            0.0000000
 Quadrupole YY       :        -11.3231144            0.0000000          -11.3231144
 Quadrupole YZ       :          0.0000000            0.0000000            0.0000000
 Quadrupole ZZ       :        -28.9500228           15.5948629          -13.3551599
 Traceless XX        :          5.8756361           -5.1982876            0.6773485
 Traceless YY        :          5.8756361           -5.1982876            0.6773485
 Traceless ZZ        :        -11.7512723           10.3965753           -1.3546970

 ------------------------------------------------------------------------------------
  ==> Computing MBIS Charges <==

  Electron Count from Grid (Expected Number): 13.00000 (13.00000)
  Difference: -0.00000

  MBIS Charges: (a.u.)
   Center  Symbol  Z      Pop.       Charge
      1       C    6    6.500000   -0.500000
      2       C    6    6.500000   -0.500000

  MBIS Dipoles: [e a0]
   Center  Symbol  Z        X           Y           Z
      1       C    6    0.000000    0.000000   -0.042047
      2       C    6   -0.000000    0.000000    0.042047

  MBIS Quadrupoles: [e a0^2]
   Center  Symbol  Z      XX        XY        XZ        YY        YZ        ZZ
      1       C    6   -5.6616    0.0000    0.0000   -5.6616   -0.0000   -6.1237
      2       C    6   -5.6616    0.0000   -0.0000   -5.6616    0.0000   -6.1237

  MBIS Octupoles: [e a0^3]
   Center  Symbol  Z      XXX       XXY       XXZ       XYY       XYZ       XZZ       YYY       YYZ       YZZ       ZZZ
      1       C    6   -0.0000    0.0000   -0.0322    0.0000    0.0000   -0.0000    0.0000   -0.0322    0.0000    0.2461
      2       C    6   -0.0000    0.0000    0.0322    0.0000   -0.0000   -0.0000    0.0000    0.0322    0.0000   -0.2461

  MBIS Radial Moments:
   Center  Symbol  Z      [a0^2]      [a0^3]      [a0^4]
      1       C    6   17.446774   46.471713   146.966573
      2       C    6   17.446774   46.471713   146.966573

  MBIS Valence Widths: [a0]
   Center  Symbol  Z     Width
      1       C    6    0.553320
      2       C    6    0.553320

*** tstop() called on Mac.lan at Sun Aug 10 17:30:42 2025
Module time:
	user time   =       3.70 seconds =       0.06 minutes
	system time =       1.76 seconds =       0.03 minutes
	total time  =          1 seconds =       0.02 minutes
Total time:
	user time   =      15.71 seconds =       0.26 minutes
	system time =       4.04 seconds =       0.07 minutes
	total time  =          2 seconds =       0.03 minutes

    Psi4 stopped on: Sunday, 10 August 2025 05:30PM
    Psi4 wall time for execution: 0:00:01.92

*** Psi4 exiting successfully. Buy a developer a beer!
