                               Psi4 1.9.1 release

  ==> Input File <==

--------------------------------------------------------------------------
molecule {
-1 2
O           0.000000           0.000000           0.000000
O           0.000000           0.000000           0.600286
}

set {
basis              cc-pvtz
reference          uks
maxiter            500
DAMPING_PERCENTAGE 1
E_CONVERGENCE      1.0E-8
D_CONVERGENCE      1.0E-8
DIIS_MAX_VECS      400
MBIS_MAXITER       8000
guess              read
}

E, wfn = energy('b3lyp', restart_file='last_wfn', return_wfn=True)
properties('b3lyp','MBIS_CHARGES', wfn=wfn)
wfn.to_file('last_wfn')
--------------------------------------------------------------------------

    Molecular point group: d2h
  Charge       = -1
  Multiplicity = 2
  Basis Set: CC-PVTZ
    Blend: CC-PVTZ
  Basis Set: (CC-PVTZ AUX)
    Blend: CC-PVTZ-JKFIT
  @DF-UKS Final Energy:  -146.81334951586487
    Total Energy =                       -146.8133495158648714
 Dipole X            :          0.0000000            0.0000000            0.0000000
 Dipole Y            :          0.0000000            0.0000000            0.0000000
 Dipole Z            :          0.0000000            0.0000000            0.0000000
 Magnitude           :                                                    0.0000000
    Molecular point group: d2h

    Geometry (in Angstrom), charge = -1, multiplicity = 2:

       Center              X                  Y                   Z               Mass
    ------------   -----------------  -----------------  -----------------  -----------------
         O            0.000000000000     0.000000000000    -0.300143000000    15.994914619570
         O            0.000000000000     0.000000000000     0.300143000000    15.994914619570

  Charge       = -1
  Multiplicity = 2
  Basis Set: CC-PVTZ
    Blend: CC-PVTZ
  Basis Set: (CC-PVTZ AUX)
    Blend: CC-PVTZ-JKFIT

    Orbital Energies [Eh]
    ---------------------

    Alpha Occupied:

       1Ag   -19.077411     1B1u  -18.947892     2Ag    -1.537378
       1B2u   -0.745295     1B3u   -0.715036     3Ag    -0.370029
       2B1u   -0.291363     1B3g    0.423689     1B2g    0.453140

    Alpha Virtual:

       3B1u    0.599984     2B2u    0.633392     2B3u    0.654808
       4Ag     0.733152     5Ag     0.999663     2B3g    1.034990
       2B2g    1.059298     1B1g    1.432259     6Ag     1.432718
       4B1u    1.545372     3B2u    2.129865     5B1u    2.133756
       3B3u    2.159041     7Ag     2.211768     1Au     2.217305
       6B1u    2.219165     3B3g    2.582267     3B2g    2.605536
       4B2u    3.336538     4B3u    3.362867     8Ag     4.442992
       7B1u    4.576250     4B3g    4.630194     4B2g    4.659361
       5B2u    4.782667     5B3u    4.782668     2B1g    5.078554
       9Ag     5.078929     8B1u    5.216516     6B2u    5.824959
       6B3u    5.850771    10Ag     5.990132     9B1u    6.029084
       2Au     6.029086     5B3g    6.152071     5B2g    6.152085
       6B3g    6.403239     6B2g    6.429836    11Ag     6.444376
       3B1g    6.444735    12Ag     6.445640    10B1u    7.331805
       7B2u    8.100091     7B3u    8.125180     3Au     8.697558
      11B1u    8.697716     7B3g   11.102997     7B2g   11.129230
      12B1u   11.619476    13Ag    11.932246    13B1u   38.145627

    Beta Occupied:

       1Ag   -19.070991     1B1u  -18.941234     2Ag    -1.529914
       1B3u   -0.709188     1B2u   -0.703581     3Ag    -0.348009
       2B1u   -0.258889     1B2g    0.463900

    Beta Virtual:

       1B3g    0.554340     3B1u    0.612079     2B3u    0.660158
       2B2u    0.661395     4Ag     0.743922     5Ag     1.012342
       2B2g    1.067972     2B3g    1.093258     1B1g    1.447834
       6Ag     1.448666     4B1u    1.569314     5B1u    2.150898
       3B3u    2.164256     3B2u    2.170839     7Ag     2.217698
       1Au     2.251154     6B1u    2.252955     3B2g    2.611201
       3B3g    2.621194     4B2u    3.361284     4B3u    3.367095
       8Ag     4.454386     7B1u    4.588058     4B2g    4.666905
       4B3g    4.672344     5B3u    4.798016     5B2u    4.798053
       2B1g    5.090905     9Ag     5.091562     8B1u    5.238644
       6B3u    5.854676     6B2u    5.859076    10Ag     6.002346
       2Au     6.060044     9B1u    6.061508     5B2g    6.180460
       5B3g    6.180528     6B2g    6.433196     6B3g    6.434754
      11Ag     6.454223     3B1g    6.470480    12Ag     6.471580
      10B1u    7.344254     7B2u    8.126058     7B3u    8.127885
       3Au     8.720465    11B1u    8.721383     7B2g   11.134322
       7B3g   11.137682    12B1u   11.626366    13Ag    11.948872
      13B1u   38.154658

    Final Occupation by Irrep:
             Ag   B1g   B2g   B3g    Au   B1u   B2u   B3u
    DOCC [     3,    0,    1,    0,    0,    2,    1,    1 ]
    SOCC [     0,    0,    0,    1,    0,    0,    0,    0 ]
    NA   [     3,    0,    1,    1,    0,    2,    1,    1 ]
    NB   [     3,    0,    1,    0,    0,    2,    1,    1 ]

  @DF-UKS Final Energy:  -146.81334951548112

   => Energetics <=

    Nuclear Repulsion Energy =             56.4186762357942655
    One-Electron Energy =                -313.8142632562517065
    Two-Electron Energy =                 125.5949021174396876
    DFT Exchange-Correlation Energy =     -15.0126646124633272
    Empirical Dispersion Energy =           0.0000000000000000
    VV10 Nonlocal Energy =                  0.0000000000000000
    Total Energy =                       -146.8133495154811214

  UHF NO Occupations:
  HONO-2 :    3 Ag 1.9999432
  HONO-1 :    2B1u 1.9999061
  HONO-0 :    1B3g 1.0000000
  LUNO+0 :    3B1u 0.0000939
  LUNO+1 :    4 Ag 0.0000568
  LUNO+2 :    2B2u 0.0000535
  LUNO+3 :    2B2g 0.0000070

Computation Completed

Properties will be evaluated at   0.000000,   0.000000,   0.000000 [a0]

Properties computed using the B3LYP density matrix

 Multipole Moments:

 ------------------------------------------------------------------------------------
     Multipole            Electronic (a.u.)      Nuclear  (a.u.)        Total (a.u.)
 ------------------------------------------------------------------------------------

 L = 1.  Multiply by 2.5417464519 to convert [e a0] to [Debye]
 Dipole X            :          0.0000000            0.0000000            0.0000000
 Dipole Y            :          0.0000000            0.0000000            0.0000000
 Dipole Z            :          0.0000000            0.0000000            0.0000000
 Magnitude           :                                                    0.0000000

 L = 2.  Multiply by 1.3450342976 to convert [e a0^2] to [Debye ang]
 Quadrupole XX       :         -9.8284774            0.0000000           -9.8284774
 Quadrupole XY       :          0.0000000            0.0000000            0.0000000
 Quadrupole XZ       :          0.0000000            0.0000000            0.0000000
 Quadrupole YY       :         -8.2823209            0.0000000           -8.2823209
 Quadrupole YZ       :          0.0000000            0.0000000            0.0000000
 Quadrupole ZZ       :        -17.4002939            5.1472369          -12.2530570
 Traceless XX        :          2.0085533           -1.7157456            0.2928077
 Traceless YY        :          3.5547098           -1.7157456            1.8389642
 Traceless ZZ        :         -5.5632631            3.4314913           -2.1317719

 ------------------------------------------------------------------------------------
  ==> Computing MBIS Charges <==

  Electron Count from Grid (Expected Number): 17.00000 (17.00000)
  Difference: -0.00000

  MBIS Charges: (a.u.)
   Center  Symbol  Z      Pop.       Charge
      1       O    8    8.499999   -0.499999
      2       O    8    8.499999   -0.499999

  MBIS Dipoles: [e a0]
   Center  Symbol  Z        X           Y           Z
      1       O    8   -0.000000   -0.000000    0.411460
      2       O    8   -0.000000    0.000000   -0.411460

  MBIS Quadrupoles: [e a0^2]
   Center  Symbol  Z      XX        XY        XZ        YY        YZ        ZZ
      1       O    8   -4.9142    0.0000    0.0000   -4.1412    0.0000   -5.4989
      2       O    8   -4.9142    0.0000   -0.0000   -4.1412    0.0000   -5.4989

  MBIS Octupoles: [e a0^3]
   Center  Symbol  Z      XXX       XXY       XXZ       XYY       XYZ       XZZ       YYY       YYZ       YZZ       ZZZ
      1       O    8   -0.0000   -0.0000    1.3729   -0.0000   -0.0000   -0.0000    0.0000    0.9611   -0.0000    0.6645
      2       O    8   -0.0000   -0.0000   -1.3729   -0.0000    0.0000   -0.0000    0.0000   -0.9611   -0.0000   -0.6645

  MBIS Radial Moments:
   Center  Symbol  Z      [a0^2]      [a0^3]      [a0^4]
      1       O    8   14.554326   32.471373   87.513840
      2       O    8   14.554326   32.471373   87.513840

  MBIS Valence Widths: [a0]
   Center  Symbol  Z     Width
      1       O    8    0.414657
      2       O    8    0.414657

*** tstop() called on Mac.lan at Sun Aug 10 17:27:54 2025
Module time:
	user time   =       3.61 seconds =       0.06 minutes
	system time =       2.54 seconds =       0.04 minutes
	total time  =          0 seconds =       0.00 minutes
Total time:
	user time   =      19.29 seconds =       0.32 minutes
	system time =       4.69 seconds =       0.08 minutes
	total time  =          2 seconds =       0.03 minutes

    Psi4 stopped on: Sunday, 10 August 2025 05:27PM
    Psi4 wall time for execution: 0:00:02.33

*** Psi4 exiting successfully. Buy a developer a beer!
