                               Psi4 1.9.1 release

  ==> Input File <==

--------------------------------------------------------------------------
molecule {
-1 2
C           0.000000           0.000000           0.000000
C           0.000000           0.000000           0.587229
}

set {
basis              cc-pvtz
reference          uks
maxiter            500
DAMPING_PERCENTAGE 1
E_CONVERGENCE      1.0E-8
D_CONVERGENCE      1.0E-8
DIIS_MAX_VECS      400
MBIS_MAXITER       8000
guess              read
}

E, wfn = energy('b3lyp', restart_file='last_wfn', return_wfn=True)
properties('b3lyp','MBIS_CHARGES', wfn=wfn)
wfn.to_file('last_wfn')
--------------------------------------------------------------------------

    Molecular point group: d2h
  Charge       = -1
  Multiplicity = 2
  Basis Set: CC-PVTZ
    Blend: CC-PVTZ
  Basis Set: (CC-PVTZ AUX)
    Blend: CC-PVTZ-JKFIT
  @DF-UKS Final Energy:   -73.05904214520979
    Total Energy =                        -73.0590421452097871
 Dipole X            :          0.0000000            0.0000000            0.0000000
 Dipole Y            :          0.0000000            0.0000000            0.0000000
 Dipole Z            :          0.0000000           -0.0000000           -0.0000000
 Magnitude           :                                                    0.0000000
    Molecular point group: d2h

    Geometry (in Angstrom), charge = -1, multiplicity = 2:

       Center              X                  Y                   Z               Mass
    ------------   -----------------  -----------------  -----------------  -----------------
         C            0.000000000000     0.000000000000    -0.293614500000    12.000000000000
         C            0.000000000000     0.000000000000     0.293614500000    12.000000000000

  Charge       = -1
  Multiplicity = 2
  Basis Set: CC-PVTZ
    Blend: CC-PVTZ
  Basis Set: (CC-PVTZ AUX)
    Blend: CC-PVTZ-JKFIT

    Orbital Energies [Eh]
    ---------------------

    Alpha Occupied:

       1Ag   -10.420359     1B1u   -9.921434     2Ag    -0.355749
       1B3u   -0.286494     1B2u   -0.286494     2B1u    0.040771
       3Ag     0.115040

    Alpha Virtual:

       3B1u    0.405186     1B2g    0.433167     1B3g    0.433167
       2B3u    0.445735     2B2u    0.445735     4Ag     0.485650
       5Ag     0.679120     2B2g    0.858227     2B3g    0.858227
       6Ag     0.910433     1B1g    0.910433     4B1u    0.982494
       3B3u    1.254204     3B2u    1.254204     5B1u    1.272520
       1Au     1.272520     6B1u    1.288030     7Ag     1.362393
       3B2g    1.598306     3B3g    1.598306     4B2u    1.842947
       4B3u    1.842947     8Ag     2.427496     5B2u    2.802180
       5B3u    2.802180     9Ag     2.810379     2B1g    2.810380
       7B1u    2.814209     8B1u    3.024584     4B3g    3.035589
       4B2g    3.035589     6B3u    3.107188     6B2u    3.107188
       9B1u    3.124399     2Au     3.124399    10Ag     3.546988
       3B1g    3.646094    11Ag     3.646094     5B3g    3.650239
       5B2g    3.650239     6B3g    3.707170     6B2g    3.707170
      12Ag     3.871522    10B1u    4.878490    13Ag     5.053937
      11B1u    5.476175     3Au     5.476175     7B2u    5.526907
       7B3u    5.526907     7B2g    6.935394     7B3g    6.935394
      12B1u    8.807008    13B1u   22.666477

    Beta Occupied:

       1Ag   -10.385331     1B1u   -9.895071     2Ag    -0.322152
       1B3u   -0.260707     1B2u   -0.260707     2B1u    0.082901

    Beta Virtual:

       3Ag     0.276586     3B1u    0.418025     1B2g    0.438642
       1B3g    0.438642     2B3u    0.451837     2B2u    0.451837
       4Ag     0.532609     5Ag     0.693380     2B2g    0.867834
       2B3g    0.867834     6Ag     0.909760     1B1g    0.909760
       4B1u    0.999190     3B3u    1.271463     3B2u    1.271463
       5B1u    1.274940     1Au     1.274940     6B1u    1.308583
       7Ag     1.409832     3B2g    1.610310     3B3g    1.610310
       4B2u    1.858799     4B3u    1.858799     8Ag     2.457444
       5B2u    2.803537     5B3u    2.803537     9Ag     2.827951
       2B1g    2.827953     7B1u    2.855280     4B3g    3.044210
       4B2g    3.044210     8B1u    3.062356     9B1u    3.130765
       2Au     3.130765     6B3u    3.143801     6B2u    3.143801
      10Ag     3.577411     5B3g    3.647668     5B2g    3.647668
      11Ag     3.656131     3B1g    3.656131     6B3g    3.734555
       6B2g    3.734555    12Ag     3.891368    10B1u    4.907660
      13Ag     5.124701    11B1u    5.481996     3Au     5.481997
       7B2u    5.559618     7B3u    5.559618     7B2g    6.951237
       7B3g    6.951237    12B1u    8.866589    13B1u   22.690902

    Final Occupation by Irrep:
             Ag   B1g   B2g   B3g    Au   B1u   B2u   B3u
    DOCC [     2,    0,    0,    0,    0,    2,    1,    1 ]
    SOCC [     1,    0,    0,    0,    0,    0,    0,    0 ]
    NA   [     3,    0,    0,    0,    0,    2,    1,    1 ]
    NB   [     2,    0,    0,    0,    0,    2,    1,    1 ]

  @DF-UKS Final Energy:   -73.05904214543891

   => Energetics <=

    Nuclear Repulsion Energy =             32.4411423552310936
    One-Electron Energy =                -161.9675706024345345
    Two-Electron Energy =                  66.0374651537438382
    DFT Exchange-Correlation Energy =      -9.5700790519792953
    Empirical Dispersion Energy =           0.0000000000000000
    VV10 Nonlocal Energy =                  0.0000000000000000
    Total Energy =                        -73.0590421454389087

  UHF NO Occupations:
  HONO-2 :    2 Ag 1.9995580
  HONO-1 :    2B1u 1.9988615
  HONO-0 :    3 Ag 1.0000000
  LUNO+0 :    3B1u 0.0011385
  LUNO+1 :    4 Ag 0.0004420
  LUNO+2 :    2B3u 0.0001823
  LUNO+3 :    2B2u 0.0001823

Computation Completed

Properties will be evaluated at   0.000000,   0.000000,   0.000000 [a0]

Properties computed using the B3LYP density matrix

 Multipole Moments:

 ------------------------------------------------------------------------------------
     Multipole            Electronic (a.u.)      Nuclear  (a.u.)        Total (a.u.)
 ------------------------------------------------------------------------------------

 L = 1.  Multiply by 2.5417464519 to convert [e a0] to [Debye]
 Dipole X            :          0.0000000            0.0000000            0.0000000
 Dipole Y            :          0.0000000            0.0000000            0.0000000
 Dipole Z            :          0.0000000           -0.0000000           -0.0000000
 Magnitude           :                                                    0.0000000

 L = 2.  Multiply by 1.3450342976 to convert [e a0^2] to [Debye ang]
 Quadrupole XX       :         -8.6877735            0.0000000           -8.6877735
 Quadrupole XY       :          0.0000000            0.0000000            0.0000000
 Quadrupole XZ       :          0.0000000            0.0000000            0.0000000
 Quadrupole YY       :         -8.6877735            0.0000000           -8.6877735
 Quadrupole YZ       :          0.0000000            0.0000000            0.0000000
 Quadrupole ZZ       :        -18.0255995            3.6943155          -14.3312840
 Traceless XX        :          3.1126087           -1.2314385            1.8811702
 Traceless YY        :          3.1126087           -1.2314385            1.8811702
 Traceless ZZ        :         -6.2252173            2.4628770           -3.7623403

 ------------------------------------------------------------------------------------
  ==> Computing MBIS Charges <==

  Electron Count from Grid (Expected Number): 13.00000 (13.00000)
  Difference: -0.00000

  MBIS Charges: (a.u.)
   Center  Symbol  Z      Pop.       Charge
      1       C    6    6.500000   -0.500000
      2       C    6    6.500000   -0.500000

  MBIS Dipoles: [e a0]
   Center  Symbol  Z        X           Y           Z
      1       C    6   -0.000000    0.000000    0.314122
      2       C    6   -0.000000    0.000000   -0.314122

  MBIS Quadrupoles: [e a0^2]
   Center  Symbol  Z      XX        XY        XZ        YY        YZ        ZZ
      1       C    6   -4.3439    0.0000    0.0000   -4.3439   -0.0000   -6.6631
      2       C    6   -4.3439    0.0000   -0.0000   -4.3439    0.0000   -6.6631

  MBIS Octupoles: [e a0^3]
   Center  Symbol  Z      XXX       XXY       XXZ       XYY       XYZ       XZZ       YYY       YYZ       YZZ       ZZZ
      1       C    6   -0.0000   -0.0000    0.9612   -0.0000    0.0000   -0.0000    0.0000    0.9612    0.0000    3.6699
      2       C    6   -0.0000   -0.0000   -0.9612   -0.0000   -0.0000   -0.0000    0.0000   -0.9612    0.0000   -3.6699

  MBIS Radial Moments:
   Center  Symbol  Z      [a0^2]      [a0^3]      [a0^4]
      1       C    6   15.350904   41.252644   136.533819
      2       C    6   15.350904   41.252644   136.533819

  MBIS Valence Widths: [a0]
   Center  Symbol  Z     Width
      1       C    6    0.506208
      2       C    6    0.506208

*** tstop() called on Mac.lan at Sun Aug 10 17:30:19 2025
Module time:
	user time   =       4.28 seconds =       0.07 minutes
	system time =       1.82 seconds =       0.03 minutes
	total time  =          0 seconds =       0.00 minutes
Total time:
	user time   =      19.63 seconds =       0.33 minutes
	system time =       3.49 seconds =       0.06 minutes
	total time  =          2 seconds =       0.03 minutes

    Psi4 stopped on: Sunday, 10 August 2025 05:30PM
    Psi4 wall time for execution: 0:00:02.24

*** Psi4 exiting successfully. Buy a developer a beer!
