                               Psi4 1.9.1 release

  ==> Input File <==

--------------------------------------------------------------------------
molecule {
-1 1
N           0.000000           0.000000           0.000000
C           0.000000           0.000000           1.426157
}

set {
basis              cc-pvtz
reference          uks
maxiter            500
DAMPING_PERCENTAGE 1
E_CONVERGENCE      1.0E-8
D_CONVERGENCE      1.0E-8
DIIS_MAX_VECS      400
MBIS_MAXITER       8000
guess              read
}

E, wfn = energy('b3lyp', restart_file='last_wfn', return_wfn=True)
properties('b3lyp','MBIS_CHARGES', wfn=wfn)
wfn.to_file('last_wfn')
--------------------------------------------------------------------------

    Molecular point group: c2v
  Charge       = -1
  Multiplicity = 1
  Basis Set: CC-PVTZ
    Blend: CC-PVTZ
  Basis Set: (CC-PVTZ AUX)
    Blend: CC-PVTZ-JKFIT
  @DF-UKS Final Energy:   -92.80426426565120
    Total Energy =                        -92.8042642656511987
 Dipole X            :          0.0000000            0.0000000            0.0000000
 Dipole Y            :          0.0000000            0.0000000            0.0000000
 Dipole Z            :         -0.1451653            0.0019116           -0.1432537
 Magnitude           :                                                    0.1432537
    Molecular point group: c2v

    Geometry (in Angstrom), charge = -1, multiplicity = 1:

       Center              X                  Y                   Z               Mass
    ------------   -----------------  -----------------  -----------------  -----------------
         N            0.000000000000     0.000000000000    -0.658148494177    14.003074004430
         C            0.000000000000     0.000000000000     0.768008505823    12.000000000000

  Charge       = -1
  Multiplicity = 1
  Basis Set: CC-PVTZ
    Blend: CC-PVTZ
  Basis Set: (CC-PVTZ AUX)
    Blend: CC-PVTZ-JKFIT

    Orbital Energies [Eh]
    ---------------------

    Alpha Occupied:

       1A1   -14.062497     2A1    -9.959214     3A1    -0.519773
       4A1    -0.181817     5A1    -0.023635     1B1    -0.017258
       1B2    -0.017258

    Alpha Virtual:

       2B1     0.237730     2B2     0.237730     6A1     0.401718
       3B1     0.563694     3B2     0.563694     7A1     0.585411
       8A1     0.662443     9A1     0.729892     4B2     0.772960
       4B1     0.772960     1A2     0.930716    10A1     0.930716
       5B1     1.061875     5B2     1.061875    11A1     1.157860
      12A1     1.389153     2A2     1.402510    13A1     1.402510
       6B1     1.722389     6B2     1.722389    14A1     1.940209
       7B2     2.300690     7B1     2.300690    15A1     2.496625
       8B2     2.966531     8B1     2.966531     3A2     2.977649
      16A1     2.977649     9B2     2.980845     9B1     2.980845
      17A1     3.243590     4A2     3.261066    18A1     3.261068
      10B2     3.263590    10B1     3.263590    19A1     3.313035
      11B2     3.592171    11B1     3.592171    20A1     3.672383
      12B2     4.201856    12B1     4.201856    21A1     4.433583
       5A2     4.433584    22A1     4.771026    23A1     4.798919
       6A2     4.798934    13B2     4.885568    13B1     4.885568
      24A1     5.270382    14B1     5.343046    14B2     5.343046
      25A1     5.764675    26A1     8.788838

    Beta Occupied:

       1A1   -14.062497     2A1    -9.959214     3A1    -0.519773
       4A1    -0.181817     5A1    -0.023635     1B1    -0.017258
       1B2    -0.017258

    Beta Virtual:

       2B1     0.237730     2B2     0.237730     6A1     0.401718
       3B1     0.563694     3B2     0.563694     7A1     0.585411
       8A1     0.662443     9A1     0.729892     4B2     0.772960
       4B1     0.772960     1A2     0.930716    10A1     0.930716
       5B1     1.061875     5B2     1.061875    11A1     1.157860
      12A1     1.389153     2A2     1.402510    13A1     1.402510
       6B1     1.722389     6B2     1.722389    14A1     1.940209
       7B2     2.300690     7B1     2.300690    15A1     2.496625
       8B2     2.966531     8B1     2.966531     3A2     2.977649
      16A1     2.977649     9B2     2.980845     9B1     2.980845
      17A1     3.243590     4A2     3.261066    18A1     3.261068
      10B2     3.263590    10B1     3.263590    19A1     3.313035
      11B2     3.592171    11B1     3.592171    20A1     3.672383
      12B2     4.201856    12B1     4.201856    21A1     4.433583
       5A2     4.433584    22A1     4.771026    23A1     4.798919
       6A2     4.798934    13B2     4.885568    13B1     4.885568
      24A1     5.270382    14B1     5.343046    14B2     5.343046
      25A1     5.764675    26A1     8.788838

    Final Occupation by Irrep:
             A1    A2    B1    B2
    DOCC [     5,    0,    1,    1 ]
    SOCC [     0,    0,    0,    0 ]
    NA   [     5,    0,    1,    1 ]
    NB   [     5,    0,    1,    1 ]

  @DF-UKS Final Energy:   -92.80426426528300

   => Energetics <=

    Nuclear Repulsion Energy =             15.5841487635232347
    One-Electron Energy =                -160.0595939157993257
    Two-Electron Energy =                  61.6009426250131895
    DFT Exchange-Correlation Energy =      -9.9297617380201117
    Empirical Dispersion Energy =           0.0000000000000000
    VV10 Nonlocal Energy =                  0.0000000000000000
    Total Energy =                        -92.8042642652829954

  UHF NO Occupations:
  HONO-2 :    3 A1 2.0000000
  HONO-1 :    4 A1 2.0000000
  HONO-0 :    5 A1 2.0000000
  LUNO+0 :    6 A1 0.0000000
  LUNO+1 :    7 A1 0.0000000
  LUNO+2 :    8 A1 0.0000000
  LUNO+3 :    2 B2 0.0000000

Computation Completed

Properties will be evaluated at   0.000000,   0.000000,   0.000000 [a0]

Properties computed using the B3LYP density matrix

 Multipole Moments:

 ------------------------------------------------------------------------------------
     Multipole            Electronic (a.u.)      Nuclear  (a.u.)        Total (a.u.)
 ------------------------------------------------------------------------------------

 L = 1.  Multiply by 2.5417464519 to convert [e a0] to [Debye]
 Dipole X            :          0.0000000            0.0000000            0.0000000
 Dipole Y            :          0.0000000            0.0000000            0.0000000
 Dipole Z            :         -0.1451653            0.0019116           -0.1432537
 Magnitude           :                                                    0.1432537

 L = 2.  Multiply by 1.3450342976 to convert [e a0^2] to [Debye ang]
 Quadrupole XX       :        -10.8245771            0.0000000          -10.8245771
 Quadrupole XY       :          0.0000000            0.0000000            0.0000000
 Quadrupole XZ       :          0.0000000            0.0000000            0.0000000
 Quadrupole YY       :        -10.8245771            0.0000000          -10.8245771
 Quadrupole YZ       :          0.0000000            0.0000000            0.0000000
 Quadrupole ZZ       :        -37.8772794           23.4659615          -14.4113179
 Traceless XX        :          9.0175674           -7.8219872            1.1955803
 Traceless YY        :          9.0175674           -7.8219872            1.1955803
 Traceless ZZ        :        -18.0351349           15.6439743           -2.3911605

 ------------------------------------------------------------------------------------
  ==> Computing MBIS Charges <==

  Electron Count from Grid (Expected Number): 14.00000 (14.00000)
  Difference:  0.00000

  MBIS Charges: (a.u.)
   Center  Symbol  Z      Pop.       Charge
      1       N    7    7.552766   -0.552766
      2       C    6    6.447235   -0.447235

  MBIS Dipoles: [e a0]
   Center  Symbol  Z        X           Y           Z
      1       N    7    0.000000   -0.000000    0.043398
      2       C    6    0.000000   -0.000000   -0.225055

  MBIS Quadrupoles: [e a0^2]
   Center  Symbol  Z      XX        XY        XZ        YY        YZ        ZZ
      1       N    7   -5.1138    0.0000    0.0000   -5.1138   -0.0000   -5.4548
      2       C    6   -5.7107    0.0000   -0.0000   -5.7107    0.0000   -6.3982

  MBIS Octupoles: [e a0^3]
   Center  Symbol  Z      XXX       XXY       XXZ       XYY       XYZ       XZZ       YYY       YYZ       YZZ       ZZZ
      1       N    7   -0.0000   -0.0000   -0.0497   -0.0000   -0.0000   -0.0000   -0.0000   -0.0497   -0.0000    0.0036
      2       C    6   -0.0000   -0.0000   -0.1158   -0.0000   -0.0000   -0.0000    0.0000   -0.1158   -0.0000   -0.4244

  MBIS Radial Moments:
   Center  Symbol  Z      [a0^2]      [a0^3]      [a0^4]
      1       N    7   15.682480   35.929200   97.820556
      2       C    6   17.819715   47.715854   150.373904

  MBIS Valence Widths: [a0]
   Center  Symbol  Z     Width
      1       N    7    0.474389
      2       C    6    0.564901

*** tstop() called on Mac.lan at Sun Aug 10 17:40:47 2025
Module time:
	user time   =       3.68 seconds =       0.06 minutes
	system time =       1.88 seconds =       0.03 minutes
	total time  =          0 seconds =       0.00 minutes
Total time:
	user time   =      17.15 seconds =       0.29 minutes
	system time =       3.93 seconds =       0.07 minutes
	total time  =          2 seconds =       0.03 minutes

    Psi4 stopped on: Sunday, 10 August 2025 05:40PM
    Psi4 wall time for execution: 0:00:02.04

*** Psi4 exiting successfully. Buy a developer a beer!
