                               Psi4 1.9.1 release

  ==> Input File <==

--------------------------------------------------------------------------
molecule {
-1 2
H           0.000000           0.000000           0.000000
H           0.000000           0.000000           1.144695
}

set {
basis              cc-pvtz
reference          uks
maxiter            500
DAMPING_PERCENTAGE 1
E_CONVERGENCE      1.0E-8
D_CONVERGENCE      1.0E-8
DIIS_MAX_VECS      400
MBIS_MAXITER       8000
guess              read
}

E, wfn = energy('b3lyp', restart_file='last_wfn', return_wfn=True)
properties('b3lyp','MBIS_CHARGES', wfn=wfn)
wfn.to_file('last_wfn')
--------------------------------------------------------------------------

    Molecular point group: d2h
  Charge       = -1
  Multiplicity = 2
  Basis Set: CC-PVTZ
    Blend: CC-PVTZ
  Basis Set: (CC-PVTZ AUX)
    Blend: CC-PVTZ-JKFIT
  @DF-UKS Final Energy:    -1.05812248541217
    Total Energy =                         -1.0581224854121749
 Dipole X            :          0.0000000            0.0000000            0.0000000
 Dipole Y            :          0.0000000            0.0000000            0.0000000
 Dipole Z            :          0.0000000            0.0000000            0.0000000
 Magnitude           :                                                    0.0000000
    Molecular point group: d2h

    Geometry (in Angstrom), charge = -1, multiplicity = 2:

       Center              X                  Y                   Z               Mass
    ------------   -----------------  -----------------  -----------------  -----------------
         H            0.000000000000     0.000000000000    -0.572347500000     1.007825032230
         H            0.000000000000     0.000000000000     0.572347500000     1.007825032230

  Charge       = -1
  Multiplicity = 2
  Basis Set: CC-PVTZ
    Blend: CC-PVTZ
  Basis Set: (CC-PVTZ AUX)
    Blend: CC-PVTZ-JKFIT

    Orbital Energies [Eh]
    ---------------------

    Alpha Occupied:

       1Ag    -0.070199     1B1u    0.169716

    Alpha Virtual:

       2Ag     0.467865     2B1u    0.593105     1B3u    0.794463
       1B2u    0.794463     3Ag     1.050540     1B2g    1.122314
       1B3g    1.122314     3B1u    1.533472     4Ag     2.557215
       4B1u    2.684812     2B3u    3.182960     2B2u    3.182960
       5Ag     3.296060     6Ag     3.313057     1B1g    3.313058
       5B1u    3.745185     1Au     3.745186     3B3u    3.915608
       3B2u    3.915608     2B3g    3.996050     2B2g    3.996050
       6B1u    4.085165     3B3g    4.605774     3B2g    4.605774
       7Ag     4.715846     7B1u    5.918921

    Beta Occupied:

       1Ag    -0.030608

    Beta Virtual:

       1B1u    0.270025     2Ag     0.485992     2B1u    0.642299
       1B3u    0.811135     1B2u    0.811135     3Ag     1.093477
       1B2g    1.160958     1B3g    1.160958     3B1u    1.575393
       4Ag     2.596213     4B1u    2.731217     2B3u    3.201213
       2B2u    3.201213     5Ag     3.323895     6Ag     3.338619
       1B1g    3.338619     5B1u    3.777197     1Au     3.777198
       3B3u    3.959979     3B2u    3.959979     2B3g    4.040640
       2B2g    4.040640     6B1u    4.139623     3B3g    4.639029
       3B2g    4.639029     7Ag     4.760399     7B1u    5.948283

    Final Occupation by Irrep:
             Ag   B1g   B2g   B3g    Au   B1u   B2u   B3u
    DOCC [     1,    0,    0,    0,    0,    0,    0,    0 ]
    SOCC [     0,    0,    0,    0,    0,    1,    0,    0 ]
    NA   [     1,    0,    0,    0,    0,    1,    0,    0 ]
    NB   [     1,    0,    0,    0,    0,    0,    0,    0 ]

  @DF-UKS Final Energy:    -1.05812248577521

   => Energetics <=

    Nuclear Repulsion Energy =              0.4622866446258611
    One-Electron Energy =                  -2.6150464270822180
    Two-Electron Energy =                   1.7772300243337258
    DFT Exchange-Correlation Energy =      -0.6825927276525828
    Empirical Dispersion Energy =           0.0000000000000000
    VV10 Nonlocal Energy =                  0.0000000000000000
    Total Energy =                         -1.0581224857752143

  UHF NO Occupations:
  HONO-1 :    1 Ag 1.9992765
  HONO-0 :    1B1u 1.0000000
  LUNO+0 :    2 Ag 0.0007235
  LUNO+1 :    2B1u 0.0000000
  LUNO+2 :    3 Ag 0.0000000
  LUNO+3 :    3B1u 0.0000000

Computation Completed

Properties will be evaluated at   0.000000,   0.000000,   0.000000 [a0]

Properties computed using the B3LYP density matrix

 Multipole Moments:

 ------------------------------------------------------------------------------------
     Multipole            Electronic (a.u.)      Nuclear  (a.u.)        Total (a.u.)
 ------------------------------------------------------------------------------------

 L = 1.  Multiply by 2.5417464519 to convert [e a0] to [Debye]
 Dipole X            :          0.0000000            0.0000000            0.0000000
 Dipole Y            :          0.0000000            0.0000000            0.0000000
 Dipole Z            :          0.0000000            0.0000000            0.0000000
 Magnitude           :                                                    0.0000000

 L = 2.  Multiply by 1.3450342976 to convert [e a0^2] to [Debye ang]
 Quadrupole XX       :         -4.3011632            0.0000000           -4.3011632
 Quadrupole XY       :          0.0000000            0.0000000            0.0000000
 Quadrupole XZ       :          0.0000000            0.0000000            0.0000000
 Quadrupole YY       :         -4.3011632            0.0000000           -4.3011632
 Quadrupole YZ       :          0.0000000            0.0000000            0.0000000
 Quadrupole ZZ       :        -10.3398621            2.3396307           -8.0002314
 Traceless XX        :          2.0128996           -0.7798769            1.2330227
 Traceless YY        :          2.0128996           -0.7798769            1.2330227
 Traceless ZZ        :         -4.0257993            1.5597538           -2.4660455

 ------------------------------------------------------------------------------------
  ==> Computing MBIS Charges <==

  Electron Count from Grid (Expected Number):  3.00000 ( 3.00000)
  Difference: -0.00000

  MBIS Charges: (a.u.)
   Center  Symbol  Z      Pop.       Charge
      1       H    1    1.500000   -0.500000
      2       H    1    1.500000   -0.500000

  MBIS Dipoles: [e a0]
   Center  Symbol  Z        X           Y           Z
      1       H    1    0.000000   -0.000000    0.259285
      2       H    1   -0.000000    0.000000   -0.259285

  MBIS Quadrupoles: [e a0^2]
   Center  Symbol  Z      XX        XY        XZ        YY        YZ        ZZ
      1       H    1   -2.1506   -0.0000    0.0000   -2.1506   -0.0000   -2.8543
      2       H    1   -2.1506   -0.0000    0.0000   -2.1506    0.0000   -2.8543

  MBIS Octupoles: [e a0^3]
   Center  Symbol  Z      XXX       XXY       XXZ       XYY       XYZ       XZZ       YYY       YYZ       YZZ       ZZZ
      1       H    1    0.0000    0.0000    0.6440    0.0000   -0.0000    0.0000   -0.0000    0.6440   -0.0000    1.1582
      2       H    1   -0.0000    0.0000   -0.6440    0.0000   -0.0000   -0.0000   -0.0000   -0.6440    0.0000   -1.1582

  MBIS Radial Moments:
   Center  Symbol  Z      [a0^2]      [a0^3]      [a0^4]
      1       H    1    7.155497   22.306769   80.848601
      2       H    1    7.155497   22.306769   80.848601

  MBIS Valence Widths: [a0]
   Center  Symbol  Z     Width
      1       H    1    0.627136
      2       H    1    0.627136

*** tstop() called on Mac.lan at Sun Aug 10 17:26:14 2025
Module time:
	user time   =       0.95 seconds =       0.02 minutes
	system time =       0.92 seconds =       0.02 minutes
	total time  =          0 seconds =       0.00 minutes
Total time:
	user time   =       2.03 seconds =       0.03 minutes
	system time =       3.07 seconds =       0.05 minutes
	total time  =          1 seconds =       0.02 minutes

    Psi4 stopped on: Sunday, 10 August 2025 05:26PM
    Psi4 wall time for execution: 0:00:00.83

*** Psi4 exiting successfully. Buy a developer a beer!
