                               Psi4 1.9.1 release

  ==> Input File <==

--------------------------------------------------------------------------
molecule {
-1 1
O           0.000000           0.000000           0.000000
H           0.000000           0.000000           0.431032
}

set {
basis              cc-pvtz
reference          uks
maxiter            500
DAMPING_PERCENTAGE 1
E_CONVERGENCE      1.0E-8
D_CONVERGENCE      1.0E-8
DIIS_MAX_VECS      400
MBIS_MAXITER       8000
guess              read
}

E, wfn = energy('b3lyp', restart_file='last_wfn', return_wfn=True)
properties('b3lyp','MBIS_CHARGES', wfn=wfn)
wfn.to_file('last_wfn')
--------------------------------------------------------------------------

    Molecular point group: c2v
  Charge       = -1
  Multiplicity = 1
  Basis Set: CC-PVTZ
    Blend: CC-PVTZ
  Basis Set: (CC-PVTZ AUX)
    Blend: CC-PVTZ-JKFIT
  @DF-UKS Final Energy:   -74.47556470036110
    Total Energy =                        -74.4755647003611045
 Dipole X            :          0.0000000            0.0000000            0.0000000
 Dipole Y            :          0.0000000            0.0000000            0.0000000
 Dipole Z            :          0.2520334            0.3800051            0.6320385
 Magnitude           :                                                    0.6320385
    Molecular point group: c2v

    Geometry (in Angstrom), charge = -1, multiplicity = 1:

       Center              X                  Y                   Z               Mass
    ------------   -----------------  -----------------  -----------------  -----------------
         O            0.000000000000     0.000000000000    -0.025549108449    15.994914619570
         H            0.000000000000     0.000000000000     0.405482891551     1.007825032230

  Charge       = -1
  Multiplicity = 1
  Basis Set: CC-PVTZ
    Blend: CC-PVTZ
  Basis Set: (CC-PVTZ AUX)
    Blend: CC-PVTZ-JKFIT

    Orbital Energies [Eh]
    ---------------------

    Alpha Occupied:

       1A1   -18.631939     2A1    -0.741227     3A1    -0.058038
       1B2     0.107511     1B1     0.107511

    Alpha Virtual:

       4A1     0.337910     5A1     0.766738     2B1     0.851775
       2B2     0.851775     6A1     1.107376     7A1     1.190491
       3B2     1.249533     3B1     1.249533     8A1     1.877407
       1A2     1.877407     9A1     2.216553     4B1     2.333741
       4B2     2.333741    10A1     2.894504    11A1     3.624465
       5B2     3.638430     5B1     3.638430     2A2     3.940274
      12A1     3.940274     6B2     4.103859     6B1     4.103859
      13A1     4.351807    14A1     5.401734     7B1     5.589353
       7B2     5.589353     8B2     5.862587     8B1     5.862587
      15A1     6.362143     3A2     6.362143     9B2     6.713362
       9B1     6.713362    16A1     6.723750    17A1     7.255490
       4A2     7.255490    18A1     8.862667    10B2     9.617949
      10B1     9.617949    19A1    11.285841    20A1    19.302509

    Beta Occupied:

       1A1   -18.631939     2A1    -0.741227     3A1    -0.058038
       1B2     0.107511     1B1     0.107511

    Beta Virtual:

       4A1     0.337910     5A1     0.766738     2B1     0.851775
       2B2     0.851775     6A1     1.107376     7A1     1.190491
       3B2     1.249533     3B1     1.249533     8A1     1.877407
       1A2     1.877407     9A1     2.216553     4B1     2.333741
       4B2     2.333741    10A1     2.894504    11A1     3.624465
       5B2     3.638430     5B1     3.638430     2A2     3.940274
      12A1     3.940274     6B2     4.103859     6B1     4.103859
      13A1     4.351807    14A1     5.401734     7B1     5.589353
       7B2     5.589353     8B2     5.862587     8B1     5.862587
      15A1     6.362143     3A2     6.362143     9B2     6.713362
       9B1     6.713362    16A1     6.723750    17A1     7.255490
       4A2     7.255490    18A1     8.862667    10B2     9.617949
      10B1     9.617949    19A1    11.285841    20A1    19.302509

    Final Occupation by Irrep:
             A1    A2    B1    B2
    DOCC [     3,    0,    1,    1 ]
    SOCC [     0,    0,    0,    0 ]
    NA   [     3,    0,    1,    1 ]
    NB   [     3,    0,    1,    1 ]

  @DF-UKS Final Energy:   -74.47556464456451

   => Energetics <=

    Nuclear Repulsion Energy =              9.8215856023682697
    One-Electron Energy =                -124.5317510044094291
    Two-Electron Energy =                  48.0836233351005262
    DFT Exchange-Correlation Energy =      -7.8490225776238907
    Empirical Dispersion Energy =           0.0000000000000000
    VV10 Nonlocal Energy =                  0.0000000000000000
    Total Energy =                        -74.4755646445645141

  UHF NO Occupations:
  HONO-2 :    2 A1 2.0000000
  HONO-1 :    1 B2 2.0000000
  HONO-0 :    3 A1 2.0000000
  LUNO+0 :    4 A1 0.0000000
  LUNO+1 :    5 A1 0.0000000
  LUNO+2 :    6 A1 0.0000000
  LUNO+3 :    2 B2 0.0000000

Computation Completed

Properties will be evaluated at   0.000000,   0.000000,   0.000000 [a0]

Properties computed using the B3LYP density matrix

 Multipole Moments:

 ------------------------------------------------------------------------------------
     Multipole            Electronic (a.u.)      Nuclear  (a.u.)        Total (a.u.)
 ------------------------------------------------------------------------------------

 L = 1.  Multiply by 2.5417464519 to convert [e a0] to [Debye]
 Dipole X            :          0.0000000            0.0000000            0.0000000
 Dipole Y            :          0.0000000            0.0000000            0.0000000
 Dipole Z            :          0.2520334            0.3800051            0.6320385
 Magnitude           :                                                    0.6320385

 L = 2.  Multiply by 1.3450342976 to convert [e a0^2] to [Debye ang]
 Quadrupole XX       :         -5.8709363            0.0000000           -5.8709363
 Quadrupole XY       :          0.0000000            0.0000000            0.0000000
 Quadrupole XZ       :          0.0000000            0.0000000            0.0000000
 Quadrupole YY       :         -5.8709363            0.0000000           -5.8709363
 Quadrupole YZ       :          0.0000000            0.0000000            0.0000000
 Quadrupole ZZ       :         -5.4961002            0.6057898           -4.8903104
 Traceless XX        :         -0.1249454           -0.2019299           -0.3268753
 Traceless YY        :         -0.1249454           -0.2019299           -0.3268753
 Traceless ZZ        :          0.2498907            0.4038599            0.6537506

 ------------------------------------------------------------------------------------
  ==> Computing MBIS Charges <==

  Electron Count from Grid (Expected Number): 10.00000 (10.00000)
  Difference:  0.00000

  MBIS Charges: (a.u.)
   Center  Symbol  Z      Pop.       Charge
      1       O    8    9.452595   -1.452595
      2       H    1    0.547405    0.452595

  MBIS Dipoles: [e a0]
   Center  Symbol  Z        X           Y           Z
      1       O    8    0.000000   -0.000000    0.201944
      2       H    1   -0.000000   -0.000000    0.013161

  MBIS Quadrupoles: [e a0^2]
   Center  Symbol  Z      XX        XY        XZ        YY        YZ        ZZ
      1       O    8   -5.7894   -0.0000    0.0000   -5.7894   -0.0000   -5.0776
      2       H    1   -0.0815    0.0000    0.0000   -0.0815   -0.0000   -0.0757

  MBIS Octupoles: [e a0^3]
   Center  Symbol  Z      XXX       XXY       XXZ       XYY       XYZ       XZZ       YYY       YYZ       YZZ       ZZZ
      1       O    8    0.0000   -0.0000    0.4223    0.0000   -0.0000    0.0000   -0.0000    0.4223   -0.0000    1.1095
      2       H    1   -0.0000    0.0000    0.0027   -0.0000   -0.0000    0.0000   -0.0000    0.0027   -0.0000    0.0065

  MBIS Radial Moments:
   Center  Symbol  Z      [a0^2]      [a0^3]      [a0^4]
      1       O    8   16.656435   34.926803   87.031978
      2       H    1    0.238768    0.223701    0.252242

  MBIS Valence Widths: [a0]
   Center  Symbol  Z     Width
      1       O    8    0.421925
      2       H    1    0.192792

*** tstop() called on Mac.lan at Sun Aug 10 17:37:38 2025
Module time:
	user time   =       2.52 seconds =       0.04 minutes
	system time =       3.77 seconds =       0.06 minutes
	total time  =          1 seconds =       0.02 minutes
Total time:
	user time   =       9.39 seconds =       0.16 minutes
	system time =       6.16 seconds =       0.10 minutes
	total time  =          2 seconds =       0.03 minutes

    Psi4 stopped on: Sunday, 10 August 2025 05:37PM
    Psi4 wall time for execution: 0:00:01.53

*** Psi4 exiting successfully. Buy a developer a beer!
