                               Psi4 1.9.1 release

  ==> Input File <==

--------------------------------------------------------------------------
molecule {
-1 1
O           0.000000           0.000000           0.000000
H           0.000000           0.000000           0.522193
}

set {
basis              cc-pvtz
reference          uks
maxiter            500
DAMPING_PERCENTAGE 1
E_CONVERGENCE      1.0E-8
D_CONVERGENCE      1.0E-8
DIIS_MAX_VECS      400
MBIS_MAXITER       8000
guess              read
}

E, wfn = energy('b3lyp', restart_file='last_wfn', return_wfn=True)
properties('b3lyp','MBIS_CHARGES', wfn=wfn)
wfn.to_file('last_wfn')
--------------------------------------------------------------------------

    Molecular point group: c2v
  Charge       = -1
  Multiplicity = 1
  Basis Set: CC-PVTZ
    Blend: CC-PVTZ
  Basis Set: (CC-PVTZ AUX)
    Blend: CC-PVTZ-JKFIT
  @DF-UKS Final Energy:   -75.15327316434002
    Total Energy =                        -75.1532731643400069
 Dipole X            :          0.0000000            0.0000000            0.0000000
 Dipole Y            :          0.0000000            0.0000000            0.0000000
 Dipole Z            :          0.1797510            0.4603741            0.6401251
 Magnitude           :                                                    0.6401251
    Molecular point group: c2v

    Geometry (in Angstrom), charge = -1, multiplicity = 1:

       Center              X                  Y                   Z               Mass
    ------------   -----------------  -----------------  -----------------  -----------------
         O            0.000000000000     0.000000000000    -0.030952610452    15.994914619570
         H            0.000000000000     0.000000000000     0.491240389548     1.007825032230

  Charge       = -1
  Multiplicity = 1
  Basis Set: CC-PVTZ
    Blend: CC-PVTZ
  Basis Set: (CC-PVTZ AUX)
    Blend: CC-PVTZ-JKFIT

    Orbital Energies [Eh]
    ---------------------

    Alpha Occupied:

       1A1   -18.607164     2A1    -0.698304     3A1    -0.046415
       1B1     0.113357     1B2     0.113357

    Alpha Virtual:

       4A1     0.336271     5A1     0.789496     2B1     0.884587
       2B2     0.884587     6A1     1.076420     7A1     1.163813
       3B1     1.198200     3B2     1.198200     8A1     1.889686
       1A2     1.889686     9A1     2.195980     4B1     2.300140
       4B2     2.300140    10A1     2.703556    11A1     3.465358
       5B1     3.684912     5B2     3.684912    12A1     3.891893
       2A2     3.891893     6B1     4.122190     6B2     4.122190
      13A1     4.382357    14A1     5.291835     7B1     5.419089
       7B2     5.419089     8B1     5.588981     8B2     5.588981
       3A2     6.464584    15A1     6.464584     9B1     6.599177
       9B2     6.599177    16A1     6.671815     4A2     6.867052
      17A1     6.867052    18A1     8.759482    10B1     9.352751
      10B2     9.352751    19A1     9.544861    20A1    17.567398

    Beta Occupied:

       1A1   -18.607164     2A1    -0.698304     3A1    -0.046415
       1B1     0.113357     1B2     0.113357

    Beta Virtual:

       4A1     0.336271     5A1     0.789496     2B1     0.884587
       2B2     0.884587     6A1     1.076420     7A1     1.163813
       3B1     1.198200     3B2     1.198200     8A1     1.889686
       1A2     1.889686     9A1     2.195980     4B1     2.300140
       4B2     2.300140    10A1     2.703556    11A1     3.465358
       5B1     3.684912     5B2     3.684912    12A1     3.891893
       2A2     3.891893     6B1     4.122190     6B2     4.122190
      13A1     4.382357    14A1     5.291835     7B1     5.419089
       7B2     5.419089     8B1     5.588981     8B2     5.588981
       3A2     6.464584    15A1     6.464584     9B1     6.599177
       9B2     6.599177    16A1     6.671815     4A2     6.867052
      17A1     6.867052    18A1     8.759482    10B1     9.352751
      10B2     9.352751    19A1     9.544861    20A1    17.567398

    Final Occupation by Irrep:
             A1    A2    B1    B2
    DOCC [     3,    0,    1,    1 ]
    SOCC [     0,    0,    0,    0 ]
    NA   [     3,    0,    1,    1 ]
    NB   [     3,    0,    1,    1 ]

  @DF-UKS Final Energy:   -75.15327316419609

   => Energetics <=

    Nuclear Repulsion Energy =              8.1069981507986526
    One-Electron Energy =                -122.7072006566691016
    Two-Electron Energy =                  47.2004292233083049
    DFT Exchange-Correlation Energy =      -7.7534998816339566
    Empirical Dispersion Energy =           0.0000000000000000
    VV10 Nonlocal Energy =                  0.0000000000000000
    Total Energy =                        -75.1532731641960936

  UHF NO Occupations:
  HONO-2 :    1 B2 2.0000000
  HONO-1 :    1 B1 2.0000000
  HONO-0 :    3 A1 2.0000000
  LUNO+0 :    4 A1 0.0000000
  LUNO+1 :    5 A1 0.0000000
  LUNO+2 :    6 A1 0.0000000
  LUNO+3 :    2 B1 0.0000000

Computation Completed

Properties will be evaluated at   0.000000,   0.000000,   0.000000 [a0]

Properties computed using the B3LYP density matrix

 Multipole Moments:

 ------------------------------------------------------------------------------------
     Multipole            Electronic (a.u.)      Nuclear  (a.u.)        Total (a.u.)
 ------------------------------------------------------------------------------------

 L = 1.  Multiply by 2.5417464519 to convert [e a0] to [Debye]
 Dipole X            :          0.0000000            0.0000000            0.0000000
 Dipole Y            :          0.0000000            0.0000000            0.0000000
 Dipole Z            :          0.1797510            0.4603741            0.6401251
 Magnitude           :                                                    0.6401251

 L = 2.  Multiply by 1.3450342976 to convert [e a0^2] to [Debye ang]
 Quadrupole XX       :         -5.9280978            0.0000000           -5.9280978
 Quadrupole XY       :          0.0000000            0.0000000            0.0000000
 Quadrupole XZ       :          0.0000000            0.0000000            0.0000000
 Quadrupole YY       :         -5.9280978            0.0000000           -5.9280978
 Quadrupole YZ       :          0.0000000            0.0000000            0.0000000
 Quadrupole ZZ       :         -5.8102134            0.8891296           -4.9210838
 Traceless XX        :         -0.0392948           -0.2963765           -0.3356713
 Traceless YY        :         -0.0392948           -0.2963765           -0.3356713
 Traceless ZZ        :          0.0785896            0.5927530            0.6713426

 ------------------------------------------------------------------------------------
  ==> Computing MBIS Charges <==

  Electron Count from Grid (Expected Number): 10.00000 (10.00000)
  Difference: -0.00000

  MBIS Charges: (a.u.)
   Center  Symbol  Z      Pop.       Charge
      1       O    8    9.504950   -1.504950
      2       H    1    0.495050    0.504950

  MBIS Dipoles: [e a0]
   Center  Symbol  Z        X           Y           Z
      1       O    8   -0.000000    0.000000    0.069199
      2       H    1    0.000000    0.000000    0.014149

  MBIS Quadrupoles: [e a0^2]
   Center  Symbol  Z      XX        XY        XZ        YY        YZ        ZZ
      1       O    8   -5.8408   -0.0000   -0.0000   -5.8408   -0.0000   -5.2861
      2       H    1   -0.0873   -0.0000    0.0000   -0.0873    0.0000   -0.0831

  MBIS Octupoles: [e a0^3]
   Center  Symbol  Z      XXX       XXY       XXZ       XYY       XYZ       XZZ       YYY       YYZ       YZZ       ZZZ
      1       O    8   -0.0000   -0.0000    0.2862   -0.0000   -0.0000    0.0000   -0.0000    0.2862   -0.0000    0.6412
      2       H    1   -0.0000   -0.0000    0.0027    0.0000   -0.0000   -0.0000    0.0000    0.0027   -0.0000    0.0064

  MBIS Radial Moments:
   Center  Symbol  Z      [a0^2]      [a0^3]      [a0^4]
      1       O    8   16.967760   35.476273   87.623653
      2       H    1    0.257690    0.264758    0.327659

  MBIS Valence Widths: [a0]
   Center  Symbol  Z     Width
      1       O    8    0.425268
      2       H    1    0.210269

*** tstop() called on Mac.lan at Sun Aug 10 17:37:29 2025
Module time:
	user time   =       3.45 seconds =       0.06 minutes
	system time =       3.09 seconds =       0.05 minutes
	total time  =          0 seconds =       0.00 minutes
Total time:
	user time   =      11.97 seconds =       0.20 minutes
	system time =       5.33 seconds =       0.09 minutes
	total time  =          1 seconds =       0.02 minutes

    Psi4 stopped on: Sunday, 10 August 2025 05:37PM
    Psi4 wall time for execution: 0:00:01.68

*** Psi4 exiting successfully. Buy a developer a beer!
