                               Psi4 1.9.1 release

  ==> Input File <==

--------------------------------------------------------------------------
molecule {
-1 3
C           0.000000           0.000000           0.000000
H           0.000000           0.000000           1.537820
}

set {
basis              cc-pvtz
reference          uks
maxiter            500
DAMPING_PERCENTAGE 1
E_CONVERGENCE      1.0E-8
D_CONVERGENCE      1.0E-8
DIIS_MAX_VECS      400
MBIS_MAXITER       8000
guess              read
}

E, wfn = energy('b3lyp', restart_file='last_wfn', return_wfn=True)
properties('b3lyp','MBIS_CHARGES', wfn=wfn)
wfn.to_file('last_wfn')
--------------------------------------------------------------------------

    Molecular point group: c2v
  Charge       = -1
  Multiplicity = 3
  Basis Set: CC-PVTZ
    Blend: CC-PVTZ
  Basis Set: (CC-PVTZ AUX)
    Blend: CC-PVTZ-JKFIT
  @DF-UKS Final Energy:   -38.49991193130084
    Total Energy =                        -38.4999119313008435
 Dipole X            :          0.0000000            0.0000000            0.0000000
 Dipole Y            :          0.0000000            0.0000000            0.0000000
 Dipole Z            :         -1.6545576            1.3299619           -0.3245957
 Magnitude           :                                                    0.3245957
    Molecular point group: c2v

    Geometry (in Angstrom), charge = -1, multiplicity = 3:

       Center              X                  Y                   Z               Mass
    ------------   -----------------  -----------------  -----------------  -----------------
         C            0.000000000000     0.000000000000    -0.119147781218    12.000000000000
         H            0.000000000000     0.000000000000     1.418672218782     1.007825032230

  Charge       = -1
  Multiplicity = 3
  Basis Set: CC-PVTZ
    Blend: CC-PVTZ
  Basis Set: (CC-PVTZ AUX)
    Blend: CC-PVTZ-JKFIT

    Orbital Energies [Eh]
    ---------------------

    Alpha Occupied:

       1A1    -9.928675     2A1    -0.270799     3A1    -0.000045
       1B1     0.066156     1B2     0.066156

    Alpha Virtual:

       4A1     0.256559     5A1     0.513301     2B1     0.558546
       2B2     0.558546     6A1     0.580392     7A1     0.720509
       3B2     0.831662     3B1     0.831662     1A2     0.950697
       8A1     0.950697     9A1     1.127686     4B2     1.204232
       4B1     1.204232    10A1     1.468897     5B1     2.237527
       5B2     2.237527    11A1     2.414729    12A1     2.747077
       6B1     2.869292     6B2     2.869292    13A1     2.927222
       2A2     2.932044    14A1     2.932044     7B2     2.970538
       7B1     2.970538     3A2     3.223256    15A1     3.223257
       8B1     3.312704     8B2     3.312704    16A1     3.523422
      17A1     3.586001     4A2     3.586001    18A1     3.928314
       9B2     3.931225     9B1     3.931225    10B2     4.231208
      10B1     4.231208    19A1     4.424521    20A1     5.706243

    Beta Occupied:

       1A1    -9.903642     2A1    -0.184965     3A1     0.019994

    Beta Virtual:

       1B1     0.228165     1B2     0.228165     4A1     0.273565
       5A1     0.517010     6A1     0.599428     2B1     0.629400
       2B2     0.629400     7A1     0.768035     3B1     0.850746
       3B2     0.850746     1A2     1.027150     8A1     1.027150
       9A1     1.148372     4B2     1.229635     4B1     1.229635
      10A1     1.478491     5B1     2.316845     5B2     2.316845
      11A1     2.434738    12A1     2.748020     6B1     2.906506
       6B2     2.906506    13A1     2.961467     2A2     2.990881
      14A1     2.990881     7B2     3.066982     7B1     3.066982
       3A2     3.341040    15A1     3.341041     8B1     3.378388
       8B2     3.378388    16A1     3.561127    17A1     3.591764
       4A2     3.591765     9B2     3.927661     9B1     3.927661
      18A1     3.960781    10B2     4.237816    10B1     4.237816
      19A1     4.422887    20A1     5.727244

    Final Occupation by Irrep:
             A1    A2    B1    B2
    DOCC [     3,    0,    0,    0 ]
    SOCC [     0,    0,    1,    1 ]
    NA   [     3,    0,    1,    1 ]
    NB   [     3,    0,    0,    0 ]

  @DF-UKS Final Energy:   -38.49991193113441

   => Energetics <=

    Nuclear Repulsion Energy =              2.0646520815309986
    One-Electron Energy =                 -57.6100869254720465
    Two-Electron Energy =                  21.7356558782398892
    DFT Exchange-Correlation Energy =      -4.6901329654332473
    Empirical Dispersion Energy =           0.0000000000000000
    VV10 Nonlocal Energy =                  0.0000000000000000
    Total Energy =                        -38.4999119311344060

  UHF NO Occupations:
  HONO-2 :    3 A1 1.9965643
  HONO-1 :    1 B1 1.0000000
  HONO-0 :    1 B2 1.0000000
  LUNO+0 :    4 A1 0.0034357
  LUNO+1 :    5 A1 0.0009979
  LUNO+2 :    6 A1 0.0000011
  LUNO+3 :    7 A1 0.0000000

Computation Completed

Properties will be evaluated at   0.000000,   0.000000,   0.000000 [a0]

Properties computed using the B3LYP density matrix

 Multipole Moments:

 ------------------------------------------------------------------------------------
     Multipole            Electronic (a.u.)      Nuclear  (a.u.)        Total (a.u.)
 ------------------------------------------------------------------------------------

 L = 1.  Multiply by 2.5417464519 to convert [e a0] to [Debye]
 Dipole X            :          0.0000000            0.0000000            0.0000000
 Dipole Y            :          0.0000000            0.0000000            0.0000000
 Dipole Z            :         -1.6545576            1.3299619           -0.3245957
 Magnitude           :                                                    0.3245957

 L = 2.  Multiply by 1.3450342976 to convert [e a0^2] to [Debye ang]
 Quadrupole XX       :         -8.2434127            0.0000000           -8.2434127
 Quadrupole XY       :          0.0000000            0.0000000            0.0000000
 Quadrupole XZ       :          0.0000000            0.0000000            0.0000000
 Quadrupole YY       :         -8.2434127            0.0000000           -8.2434127
 Quadrupole YZ       :          0.0000000            0.0000000            0.0000000
 Quadrupole ZZ       :        -17.7946057            7.4914085          -10.3031972
 Traceless XX        :          3.1837310           -2.4971362            0.6865949
 Traceless YY        :          3.1837310           -2.4971362            0.6865949
 Traceless ZZ        :         -6.3674620            4.9942723           -1.3731897

 ------------------------------------------------------------------------------------
  ==> Computing MBIS Charges <==

  Electron Count from Grid (Expected Number):  8.00000 ( 8.00000)
  Difference: -0.00000

  MBIS Charges: (a.u.)
   Center  Symbol  Z      Pop.       Charge
      1       C    6    6.750945   -0.750945
      2       H    1    1.249055   -0.249055

  MBIS Dipoles: [e a0]
   Center  Symbol  Z        X           Y           Z
      1       C    6   -0.000000   -0.000000    0.193535
      2       H    1   -0.000000    0.000000   -0.019520

  MBIS Quadrupoles: [e a0^2]
   Center  Symbol  Z      XX        XY        XZ        YY        YZ        ZZ
      1       C    6   -6.8066   -0.0000    0.0000   -6.8066    0.0000   -6.7938
      2       H    1   -1.4368   -0.0000   -0.0000   -1.4368    0.0000   -1.4895

  MBIS Octupoles: [e a0^3]
   Center  Symbol  Z      XXX       XXY       XXZ       XYY       XYZ       XZZ       YYY       YYZ       YZZ       ZZZ
      1       C    6   -0.0000    0.0000    0.1465   -0.0000    0.0000   -0.0000   -0.0000    0.1465   -0.0000   -0.7190
      2       H    1   -0.0000    0.0000   -0.1151   -0.0000   -0.0000   -0.0000    0.0000   -0.1151    0.0000   -0.1937

  MBIS Radial Moments:
   Center  Symbol  Z      [a0^2]      [a0^3]      [a0^4]
      1       C    6   20.406970   57.182553   189.293247
      2       H    1    4.363154   11.737599   37.231210

  MBIS Valence Widths: [a0]
   Center  Symbol  Z     Width
      1       C    6    0.585949
      2       H    1    0.537625

*** tstop() called on Mac.lan at Sun Aug 10 17:36:21 2025
Module time:
	user time   =       2.88 seconds =       0.05 minutes
	system time =       1.68 seconds =       0.03 minutes
	total time  =          0 seconds =       0.00 minutes
Total time:
	user time   =      13.78 seconds =       0.23 minutes
	system time =       3.80 seconds =       0.06 minutes
	total time  =          1 seconds =       0.02 minutes

    Psi4 stopped on: Sunday, 10 August 2025 05:36PM
    Psi4 wall time for execution: 0:00:01.71

*** Psi4 exiting successfully. Buy a developer a beer!
