                               Psi4 1.9.1 release

  ==> Input File <==

--------------------------------------------------------------------------
molecule {
-1 3
O           0.000000           0.000000           0.000000
N           0.000000           0.000000           0.593059
}

set {
basis              cc-pvtz
reference          uks
maxiter            500
DAMPING_PERCENTAGE 1
E_CONVERGENCE      1.0E-8
D_CONVERGENCE      1.0E-8
DIIS_MAX_VECS      400
MBIS_MAXITER       8000
guess              read
}

E, wfn = energy('b3lyp', restart_file='last_wfn', return_wfn=True)
properties('b3lyp','MBIS_CHARGES', wfn=wfn)
wfn.to_file('last_wfn')
--------------------------------------------------------------------------

    Molecular point group: c2v
  Charge       = -1
  Multiplicity = 3
  Basis Set: CC-PVTZ
    Blend: CC-PVTZ
  Basis Set: (CC-PVTZ AUX)
    Blend: CC-PVTZ-JKFIT
  @DF-UKS Final Energy:  -126.59162003486311
    Total Energy =                       -126.5916200348631122
 Dipole X            :          0.0000000            0.0000000            0.0000000
 Dipole Y            :          0.0000000            0.0000000            0.0000000
 Dipole Z            :         -2.0764325           -0.0022487           -2.0786811
 Magnitude           :                                                    2.0786811
    Molecular point group: c2v

    Geometry (in Angstrom), charge = -1, multiplicity = 3:

       Center              X                  Y                   Z               Mass
    ------------   -----------------  -----------------  -----------------  -----------------
         O            0.000000000000     0.000000000000    -0.276840196524    15.994914619570
         N            0.000000000000     0.000000000000     0.316218803476    14.003074004430

  Charge       = -1
  Multiplicity = 3
  Basis Set: CC-PVTZ
    Blend: CC-PVTZ
  Basis Set: (CC-PVTZ AUX)
    Blend: CC-PVTZ-JKFIT

    Orbital Energies [Eh]
    ---------------------

    Alpha Occupied:

       1A1   -19.042079     2A1   -14.216461     3A1    -1.241261
       1B2    -0.675512     1B1    -0.675512     4A1    -0.389474
       5A1    -0.159688     2B1     0.406124     2B2     0.406124

    Alpha Virtual:

       6A1     0.453856     3B1     0.578603     3B2     0.578603
       7A1     0.653344     8A1     0.796858     4B1     0.986377
       4B2     0.986377     1A2     1.181938     9A1     1.181939
      10A1     1.536711     5B1     1.785950     5B2     1.785950
      11A1     1.828942     2A2     1.995283    12A1     1.995285
       6B1     2.166690     6B2     2.166690    13A1     2.214847
       7B1     2.988799     7B2     2.988799    14A1     3.461536
      15A1     3.926240     8B2     3.985342     8B1     3.985342
       3A2     4.300750    16A1     4.300751     9B1     4.439448
       9B2     4.439448    17A1     4.536332     4A2     4.671805
      18A1     4.671807    10B1     4.816728    10B2     4.816728
      19A1     5.261071    11B2     5.738888    11B1     5.738888
      12B1     5.790845    12B2     5.790845    20A1     6.237095
       5A2     6.237095    21A1     6.724633    13B2     7.567346
      13B1     7.567346    22A1     7.929113     6A2     7.993483
      23A1     7.993483    14B1     9.669046    14B2     9.669046
      24A1    10.223071    25A1    10.834485    26A1    29.515399

    Beta Occupied:

       1A1   -19.030601     2A1   -14.216326     3A1    -1.229654
       1B2    -0.649347     1B1    -0.649347     4A1    -0.367172
       5A1    -0.121036

    Beta Virtual:

       6A1     0.476150     2B1     0.535325     2B2     0.535325
       3B1     0.590387     3B2     0.590387     7A1     0.676559
       8A1     0.841052     4B1     1.029063     4B2     1.029063
       9A1     1.216946     1A2     1.216947    10A1     1.551090
       5B1     1.820892     5B2     1.820892    11A1     1.844923
       2A2     2.039558    12A1     2.039558     6B1     2.190767
       6B2     2.190767    13A1     2.229935     7B1     3.010083
       7B2     3.010083    14A1     3.484888    15A1     3.935270
       8B2     4.006673     8B1     4.006673    16A1     4.313752
       3A2     4.313752     9B1     4.465094     9B2     4.465094
      17A1     4.548160     4A2     4.702980    18A1     4.702981
      10B1     4.837524    10B2     4.837524    19A1     5.277128
      11B2     5.767028    11B1     5.767028    12B1     5.811373
      12B2     5.811373    20A1     6.270804     5A2     6.270804
      21A1     6.737536    13B2     7.582689    13B1     7.582689
      22A1     7.935501     6A2     8.019988    23A1     8.019988
      14B1     9.690929    14B2     9.690929    24A1    10.239435
      25A1    10.842545    26A1    29.527683

    Final Occupation by Irrep:
             A1    A2    B1    B2
    DOCC [     5,    0,    1,    1 ]
    SOCC [     0,    0,    1,    1 ]
    NA   [     5,    0,    2,    2 ]
    NB   [     5,    0,    1,    1 ]

  @DF-UKS Final Energy:  -126.59162003484340

   => Energetics <=

    Nuclear Repulsion Energy =             49.9679185334342790
    One-Electron Energy =                -271.5264510986928599
    Two-Electron Energy =                 108.5683559482786791
    DFT Exchange-Correlation Energy =     -13.6014434178634946
    Empirical Dispersion Energy =           0.0000000000000000
    VV10 Nonlocal Energy =                  0.0000000000000000
    Total Energy =                       -126.5916200348434018

  UHF NO Occupations:
  HONO-2 :    5 A1 1.9991422
  HONO-1 :    2 B2 1.0000000
  HONO-0 :    2 B1 1.0000000
  LUNO+0 :    6 A1 0.0008578
  LUNO+1 :    3 B2 0.0000713
  LUNO+2 :    3 B1 0.0000713
  LUNO+3 :    7 A1 0.0000385

Computation Completed

Properties will be evaluated at   0.000000,   0.000000,   0.000000 [a0]

Properties computed using the B3LYP density matrix

 Multipole Moments:

 ------------------------------------------------------------------------------------
     Multipole            Electronic (a.u.)      Nuclear  (a.u.)        Total (a.u.)
 ------------------------------------------------------------------------------------

 L = 1.  Multiply by 2.5417464519 to convert [e a0] to [Debye]
 Dipole X            :          0.0000000            0.0000000            0.0000000
 Dipole Y            :          0.0000000            0.0000000            0.0000000
 Dipole Z            :         -2.0764325           -0.0022487           -2.0786811
 Magnitude           :                                                    2.0786811

 L = 2.  Multiply by 1.3450342976 to convert [e a0^2] to [Debye ang]
 Quadrupole XX       :        -10.6456428            0.0000000          -10.6456428
 Quadrupole XY       :          0.0000000            0.0000000            0.0000000
 Quadrupole XZ       :          0.0000000            0.0000000            0.0000000
 Quadrupole YY       :        -10.6456428            0.0000000          -10.6456428
 Quadrupole YZ       :          0.0000000            0.0000000            0.0000000
 Quadrupole ZZ       :        -16.7942396            4.6891091          -12.1051305
 Traceless XX        :          2.0495323           -1.5630364            0.4864959
 Traceless YY        :          2.0495323           -1.5630364            0.4864959
 Traceless ZZ        :         -4.0990645            3.1260727           -0.9729918

 ------------------------------------------------------------------------------------
  ==> Computing MBIS Charges <==

  Electron Count from Grid (Expected Number): 16.00000 (16.00000)
  Difference: -0.00000

  MBIS Charges: (a.u.)
   Center  Symbol  Z      Pop.       Charge
      1       O    8    7.196039    0.803961
      2       N    7    8.803960   -1.803960

  MBIS Dipoles: [e a0]
   Center  Symbol  Z        X           Y           Z
      1       O    8   -0.000000   -0.000000   -0.001163
      2       N    7    0.000000    0.000000   -0.578939

  MBIS Quadrupoles: [e a0^2]
   Center  Symbol  Z      XX        XY        XZ        YY        YZ        ZZ
      1       O    8   -1.8901   -0.0000    0.0000   -1.8901    0.0000   -2.3914
      2       N    7   -8.7556    0.0000    0.0000   -8.7556   -0.0000   -8.5989

  MBIS Octupoles: [e a0^3]
   Center  Symbol  Z      XXX       XXY       XXZ       XYY       XYZ       XZZ       YYY       YYZ       YZZ       ZZZ
      1       O    8   -0.0000    0.0000    0.0515   -0.0000    0.0000    0.0000   -0.0000    0.0515    0.0000    0.3404
      2       N    7   -0.0000   -0.0000   -3.4171    0.0000    0.0000   -0.0000    0.0000   -3.4171   -0.0000   -0.0645

  MBIS Radial Moments:
   Center  Symbol  Z      [a0^2]      [a0^3]      [a0^4]
      1       O    8    6.171561    8.987523   15.873641
      2       N    7   26.110027   72.067002   228.892718

  MBIS Valence Widths: [a0]
   Center  Symbol  Z     Width
      1       O    8    0.300281
      2       N    7    0.557329

*** tstop() called on Mac.lan at Sun Aug 10 17:46:21 2025
Module time:
	user time   =       3.57 seconds =       0.06 minutes
	system time =       2.83 seconds =       0.05 minutes
	total time  =          1 seconds =       0.02 minutes
Total time:
	user time   =      19.58 seconds =       0.33 minutes
	system time =       5.02 seconds =       0.08 minutes
	total time  =          3 seconds =       0.05 minutes

    Psi4 stopped on: Sunday, 10 August 2025 05:46PM
    Psi4 wall time for execution: 0:00:02.38

*** Psi4 exiting successfully. Buy a developer a beer!
