                               Psi4 1.9.1 release

  ==> Input File <==

--------------------------------------------------------------------------
molecule {
-1 3
C           0.000000           0.000000           0.000000
H           0.000000           0.000000           0.511040
}

set {
basis              cc-pvtz
reference          uks
maxiter            500
DAMPING_PERCENTAGE 1
E_CONVERGENCE      1.0E-8
D_CONVERGENCE      1.0E-8
DIIS_MAX_VECS      400
MBIS_MAXITER       8000
guess              read
}

E, wfn = energy('b3lyp', restart_file='last_wfn', return_wfn=True)
properties('b3lyp','MBIS_CHARGES', wfn=wfn)
wfn.to_file('last_wfn')
--------------------------------------------------------------------------

    Molecular point group: c2v
  Charge       = -1
  Multiplicity = 3
  Basis Set: CC-PVTZ
    Blend: CC-PVTZ
  Basis Set: (CC-PVTZ AUX)
    Blend: CC-PVTZ-JKFIT
  @DF-UKS Final Energy:   -37.66441599063678
    Total Energy =                        -37.6644159906367761
 Dipole X            :          0.0000000            0.0000000            0.0000000
 Dipole Y            :          0.0000000            0.0000000            0.0000000
 Dipole Z            :          0.5248420            0.4419657            0.9668077
 Magnitude           :                                                    0.9668077
    Molecular point group: c2v

    Geometry (in Angstrom), charge = -1, multiplicity = 3:

       Center              X                  Y                   Z               Mass
    ------------   -----------------  -----------------  -----------------  -----------------
         C            0.000000000000     0.000000000000    -0.039594544299    12.000000000000
         H            0.000000000000     0.000000000000     0.471445455701     1.007825032230

  Charge       = -1
  Multiplicity = 3
  Basis Set: CC-PVTZ
    Blend: CC-PVTZ
  Basis Set: (CC-PVTZ AUX)
    Blend: CC-PVTZ-JKFIT

    Orbital Energies [Eh]
    ---------------------

    Alpha Occupied:

       1A1    -9.860438     2A1    -0.444711     3A1     0.016430
       1B1     0.089544     1B2     0.089544

    Alpha Virtual:

       4A1     0.294501     5A1     0.522646     2B1     0.568896
       2B2     0.568896     6A1     0.751131     3B2     0.973035
       3B1     0.973035     1A2     0.973682     7A1     0.973682
       8A1     1.030462     9A1     1.347940     4B1     1.472938
       4B2     1.472938    10A1     2.095767     5B1     2.202857
       5B2     2.202857    11A1     2.554573    12A1     2.953335
       2A2     2.993938    13A1     2.993938     6B2     3.008694
       6B1     3.008694     7B1     3.115727     7B2     3.115727
       3A2     3.194624    14A1     3.194624    15A1     3.499183
       8B1     3.539913     8B2     3.539913    16A1     4.679670
       4A2     4.852803    17A1     4.852803     9B1     4.864982
       9B2     4.864982    18A1     5.978038    10B1     6.992156
      10B2     6.992156    19A1     9.526529    20A1    19.710910

    Beta Occupied:

       1A1    -9.836205     2A1    -0.378085     3A1     0.064247

    Beta Virtual:

       1B1     0.248040     1B2     0.248040     4A1     0.302440
       5A1     0.537877     2B1     0.638216     2B2     0.638216
       6A1     0.789937     3B1     1.011219     3B2     1.011219
       7A1     1.049665     1A2     1.049665     8A1     1.056437
       9A1     1.358634     4B1     1.492674     4B2     1.492674
      10A1     2.134222     5B1     2.281149     5B2     2.281149
      11A1     2.585511    12A1     3.015053     2A2     3.052587
      13A1     3.052587     6B2     3.103759     6B1     3.103759
       7B1     3.164020     7B2     3.164020    14A1     3.300904
       3A2     3.300904    15A1     3.526813     8B1     3.579554
       8B2     3.579554    16A1     4.709061     9B1     4.898122
       9B2     4.898122    17A1     4.903759     4A2     4.903759
      18A1     6.008848    10B1     7.029083    10B2     7.029083
      19A1     9.534659    20A1    19.736361

    Final Occupation by Irrep:
             A1    A2    B1    B2
    DOCC [     3,    0,    0,    0 ]
    SOCC [     0,    0,    1,    1 ]
    NA   [     3,    0,    1,    1 ]
    NB   [     3,    0,    0,    0 ]

  @DF-UKS Final Energy:   -37.66441599075016

   => Energetics <=

    Nuclear Repulsion Energy =              6.2129447088681902
    One-Electron Energy =                 -63.8620748063150359
    Two-Electron Energy =                  25.0294286853689840
    DFT Exchange-Correlation Energy =      -5.0447145786723055
    Empirical Dispersion Energy =           0.0000000000000000
    VV10 Nonlocal Energy =                  0.0000000000000000
    Total Energy =                        -37.6644159907501646

  UHF NO Occupations:
  HONO-2 :    3 A1 1.9973138
  HONO-1 :    1 B2 1.0000000
  HONO-0 :    1 B1 1.0000000
  LUNO+0 :    4 A1 0.0026862
  LUNO+1 :    5 A1 0.0001682
  LUNO+2 :    6 A1 0.0000012
  LUNO+3 :    7 A1 0.0000000

Computation Completed

Properties will be evaluated at   0.000000,   0.000000,   0.000000 [a0]

Properties computed using the B3LYP density matrix

 Multipole Moments:

 ------------------------------------------------------------------------------------
     Multipole            Electronic (a.u.)      Nuclear  (a.u.)        Total (a.u.)
 ------------------------------------------------------------------------------------

 L = 1.  Multiply by 2.5417464519 to convert [e a0] to [Debye]
 Dipole X            :          0.0000000            0.0000000            0.0000000
 Dipole Y            :          0.0000000            0.0000000            0.0000000
 Dipole Z            :          0.5248420            0.4419657            0.9668077
 Magnitude           :                                                    0.9668077

 L = 2.  Multiply by 1.3450342976 to convert [e a0^2] to [Debye ang]
 Quadrupole XX       :         -7.5948358            0.0000000           -7.5948358
 Quadrupole XY       :          0.0000000            0.0000000            0.0000000
 Quadrupole XZ       :          0.0000000            0.0000000            0.0000000
 Quadrupole YY       :         -7.5948358            0.0000000           -7.5948358
 Quadrupole YZ       :          0.0000000            0.0000000            0.0000000
 Quadrupole ZZ       :         -8.3997917            0.8272985           -7.5724931
 Traceless XX        :          0.2683186           -0.2757662           -0.0074476
 Traceless YY        :          0.2683186           -0.2757662           -0.0074476
 Traceless ZZ        :         -0.5366372            0.5515324            0.0148951

 ------------------------------------------------------------------------------------
  ==> Computing MBIS Charges <==

  Electron Count from Grid (Expected Number):  8.00000 ( 8.00000)
  Difference: -0.00000

  MBIS Charges: (a.u.)
   Center  Symbol  Z      Pop.       Charge
      1       C    6    7.118851   -1.118851
      2       H    1    0.881149    0.118851

  MBIS Dipoles: [e a0]
   Center  Symbol  Z        X           Y           Z
      1       C    6   -0.000000   -0.000000    0.765672
      2       H    1    0.000000   -0.000000    0.011536

  MBIS Quadrupoles: [e a0^2]
   Center  Symbol  Z      XX        XY        XZ        YY        YZ        ZZ
      1       C    6   -7.3821    0.0000    0.0000   -7.3821    0.0000   -7.3628
      2       H    1   -0.2127    0.0000    0.0000   -0.2127    0.0000   -0.2037

  MBIS Octupoles: [e a0^3]
   Center  Symbol  Z      XXX       XXY       XXZ       XYY       XYZ       XZZ       YYY       YYZ       YZZ       ZZZ
      1       C    6   -0.0000   -0.0000    1.7240   -0.0000   -0.0000   -0.0000   -0.0000    1.7240   -0.0000    5.2253
      2       H    1   -0.0000   -0.0000    0.0050    0.0000    0.0000   -0.0000   -0.0000    0.0050   -0.0000    0.0137

  MBIS Radial Moments:
   Center  Symbol  Z      [a0^2]      [a0^3]      [a0^4]
      1       C    6   22.126997   62.718192   208.514268
      2       H    1    0.629212    0.750670    1.076999

  MBIS Valence Widths: [a0]
   Center  Symbol  Z     Width
      1       C    6    0.587729
      2       H    1    0.247276

*** tstop() called on Mac.lan at Sun Aug 10 17:35:31 2025
Module time:
	user time   =       2.62 seconds =       0.04 minutes
	system time =       2.96 seconds =       0.05 minutes
	total time  =          1 seconds =       0.02 minutes
Total time:
	user time   =      13.14 seconds =       0.22 minutes
	system time =       5.13 seconds =       0.09 minutes
	total time  =          2 seconds =       0.03 minutes

    Psi4 stopped on: Sunday, 10 August 2025 05:35PM
    Psi4 wall time for execution: 0:00:01.77

*** Psi4 exiting successfully. Buy a developer a beer!
