                               Psi4 1.9.1 release

  ==> Input File <==

--------------------------------------------------------------------------
molecule {
-1 2
C           0.000000           0.000000           0.000000
C           0.000000           0.000000           1.442428
}

set {
basis              cc-pvtz
reference          uks
maxiter            500
DAMPING_PERCENTAGE 1
E_CONVERGENCE      1.0E-8
D_CONVERGENCE      1.0E-8
DIIS_MAX_VECS      400
MBIS_MAXITER       8000
guess              read
}

E, wfn = energy('b3lyp', restart_file='last_wfn', return_wfn=True)
properties('b3lyp','MBIS_CHARGES', wfn=wfn)
wfn.to_file('last_wfn')
--------------------------------------------------------------------------

    Molecular point group: d2h
  Charge       = -1
  Multiplicity = 2
  Basis Set: CC-PVTZ
    Blend: CC-PVTZ
  Basis Set: (CC-PVTZ AUX)
    Blend: CC-PVTZ-JKFIT
  @DF-UKS Final Energy:   -76.02507709613312
    Total Energy =                        -76.0250770961331170
 Dipole X            :          0.0000000            0.0000000            0.0000000
 Dipole Y            :          0.0000000            0.0000000            0.0000000
 Dipole Z            :          0.0000000            0.0000000            0.0000000
 Magnitude           :                                                    0.0000000
    Molecular point group: d2h

    Geometry (in Angstrom), charge = -1, multiplicity = 2:

       Center              X                  Y                   Z               Mass
    ------------   -----------------  -----------------  -----------------  -----------------
         C            0.000000000000     0.000000000000    -0.721214000000    12.000000000000
         C            0.000000000000     0.000000000000     0.721214000000    12.000000000000

  Charge       = -1
  Multiplicity = 2
  Basis Set: CC-PVTZ
    Blend: CC-PVTZ
  Basis Set: (CC-PVTZ AUX)
    Blend: CC-PVTZ-JKFIT

    Orbital Energies [Eh]
    ---------------------

    Alpha Occupied:

       1Ag    -9.961474     1B1u   -9.960986     2Ag    -0.430988
       2B1u   -0.156159     3Ag    -0.042030     1B2u    0.001889
       1B3u    0.001889

    Alpha Virtual:

       1B3g    0.243401     1B2g    0.243401     3B1u    0.383586
       4Ag     0.509897     2B2u    0.536611     2B3u    0.536611
       5Ag     0.610664     2B3g    0.611978     2B2g    0.611978
       4B1u    0.680902     5B1u    0.855234     1B1g    0.860149
       6Ag     0.860149     3B3u    0.980684     3B2u    0.980684
       1Au     1.110761     6B1u    1.110761     3B2g    1.382146
       3B3g    1.382146     7Ag     1.405595     7B1u    1.454048
       4B2u    2.220958     4B3u    2.220958     8Ag     2.304404
       4B3g    2.403949     4B2g    2.403949     2B1g    2.703549
       9Ag     2.703550     8B1u    2.724134     5B3u    2.728060
       5B2u    2.728060     6B3u    2.861830     6B2u    2.861830
      10Ag     2.906041     5B2g    3.102285     5B3g    3.102285
       3B1g    3.227145    11Ag     3.227149     2Au     3.308054
       9B1u    3.308057    10B1u    3.316149     6B2g    3.356671
       6B3g    3.356671     3Au     3.577842    11B1u    3.577844
       7B3u    3.580830     7B2u    3.580830    12B1u    3.973561
      12Ag     4.071134    13Ag     4.371746     7B3g    4.460883
       7B2g    4.460883    13B1u    9.095922

    Beta Occupied:

       1Ag    -9.953410     1B1u   -9.953060     2Ag    -0.399778
       2B1u   -0.098200     1B2u    0.009533     1B3u    0.009533

    Beta Virtual:

       3Ag     0.090023     1B3g    0.255274     1B2g    0.255274
       3B1u    0.393335     4Ag     0.536381     2B2u    0.540706
       2B3u    0.540706     2B3g    0.617053     2B2g    0.617053
       5Ag     0.627821     4B1u    0.734029     1B1g    0.861586
       6Ag     0.861586     5B1u    0.863767     3B3u    1.004622
       3B2u    1.004622     1Au     1.115148     6B1u    1.115148
       3B2g    1.402625     3B3g    1.402625     7Ag     1.437623
       7B1u    1.487748     4B2u    2.227971     4B3u    2.227971
       8Ag     2.338534     4B3g    2.408630     4B2g    2.408630
       2B1g    2.721512     9Ag     2.721512     5B3u    2.758733
       5B2u    2.758733     8B1u    2.759791     6B3u    2.862949
       6B2u    2.862949    10Ag     2.962313     5B2g    3.103281
       5B3g    3.103281     3B1g    3.233073    11Ag     3.233076
       2Au     3.310783     9B1u    3.310786    10B1u    3.355926
       6B2g    3.400590     6B3g    3.400590     3Au     3.597460
      11B1u    3.597461     7B3u    3.620551     7B2u    3.620551
      12B1u    4.022787    12Ag     4.099129    13Ag     4.404500
       7B3g    4.489084     7B2g    4.489084    13B1u    9.112997

    Final Occupation by Irrep:
             Ag   B1g   B2g   B3g    Au   B1u   B2u   B3u
    DOCC [     2,    0,    0,    0,    0,    2,    1,    1 ]
    SOCC [     1,    0,    0,    0,    0,    0,    0,    0 ]
    NA   [     3,    0,    0,    0,    0,    2,    1,    1 ]
    NB   [     2,    0,    0,    0,    0,    2,    1,    1 ]

  @DF-UKS Final Energy:   -76.02507709478041

   => Energetics <=

    Nuclear Repulsion Energy =             13.2071615249565291
    One-Electron Energy =                -131.2573853438707090
    Two-Electron Energy =                  50.7245244275342699
    DFT Exchange-Correlation Energy =      -8.6993777034005060
    Empirical Dispersion Energy =           0.0000000000000000
    VV10 Nonlocal Energy =                  0.0000000000000000
    Total Energy =                        -76.0250770947804142

  UHF NO Occupations:
  HONO-2 :    2 Ag 1.9996618
  HONO-1 :    2B1u 1.9980150
  HONO-0 :    3 Ag 1.0000000
  LUNO+0 :    3B1u 0.0019850
  LUNO+1 :    4 Ag 0.0003382
  LUNO+2 :    2B3u 0.0001102
  LUNO+3 :    2B2u 0.0001102

Computation Completed

Properties will be evaluated at   0.000000,   0.000000,   0.000000 [a0]

Properties computed using the B3LYP density matrix

 Multipole Moments:

 ------------------------------------------------------------------------------------
     Multipole            Electronic (a.u.)      Nuclear  (a.u.)        Total (a.u.)
 ------------------------------------------------------------------------------------

 L = 1.  Multiply by 2.5417464519 to convert [e a0] to [Debye]
 Dipole X            :          0.0000000            0.0000000            0.0000000
 Dipole Y            :          0.0000000            0.0000000            0.0000000
 Dipole Z            :          0.0000000            0.0000000            0.0000000
 Magnitude           :                                                    0.0000000

 L = 2.  Multiply by 1.3450342976 to convert [e a0^2] to [Debye ang]
 Quadrupole XX       :        -12.0181503            0.0000000          -12.0181503
 Quadrupole XY       :          0.0000000            0.0000000            0.0000000
 Quadrupole XZ       :          0.0000000            0.0000000            0.0000000
 Quadrupole YY       :        -12.0181503            0.0000000          -12.0181503
 Quadrupole YZ       :          0.0000000            0.0000000            0.0000000
 Quadrupole ZZ       :        -35.8689395           22.2898568          -13.5790827
 Traceless XX        :          7.9502631           -7.4299523            0.5203108
 Traceless YY        :          7.9502631           -7.4299523            0.5203108
 Traceless ZZ        :        -15.9005261           14.8599045           -1.0406216

 ------------------------------------------------------------------------------------
  ==> Computing MBIS Charges <==

  Electron Count from Grid (Expected Number): 13.00000 (13.00000)
  Difference:  0.00000

  MBIS Charges: (a.u.)
   Center  Symbol  Z      Pop.       Charge
      1       C    6    6.500000   -0.500000
      2       C    6    6.500000   -0.500000

  MBIS Dipoles: [e a0]
   Center  Symbol  Z        X           Y           Z
      1       C    6   -0.000000    0.000000   -0.102298
      2       C    6   -0.000000    0.000000    0.102298

  MBIS Quadrupoles: [e a0^2]
   Center  Symbol  Z      XX        XY        XZ        YY        YZ        ZZ
      1       C    6   -6.0091    0.0000   -0.0000   -6.0091   -0.0000   -6.1396
      2       C    6   -6.0091    0.0000    0.0000   -6.0091    0.0000   -6.1396

  MBIS Octupoles: [e a0^3]
   Center  Symbol  Z      XXX       XXY       XXZ       XYY       XYZ       XZZ       YYY       YYZ       YZZ       ZZZ
      1       C    6   -0.0000    0.0000   -0.3463   -0.0000   -0.0000   -0.0000    0.0000   -0.3463    0.0000   -0.6644
      2       C    6   -0.0000    0.0000    0.3463   -0.0000    0.0000   -0.0000    0.0000    0.3463    0.0000    0.6644

  MBIS Radial Moments:
   Center  Symbol  Z      [a0^2]      [a0^3]      [a0^4]
      1       C    6   18.157791   49.104200   157.018541
      2       C    6   18.157791   49.104200   157.018541

  MBIS Valence Widths: [a0]
   Center  Symbol  Z     Width
      1       C    6    0.566285
      2       C    6    0.566285

*** tstop() called on Mac.lan at Sun Aug 10 17:31:02 2025
Module time:
	user time   =       3.60 seconds =       0.06 minutes
	system time =       2.01 seconds =       0.03 minutes
	total time  =          1 seconds =       0.02 minutes
Total time:
	user time   =      16.17 seconds =       0.27 minutes
	system time =       4.41 seconds =       0.07 minutes
	total time  =          2 seconds =       0.03 minutes

    Psi4 stopped on: Sunday, 10 August 2025 05:31PM
    Psi4 wall time for execution: 0:00:02.00

*** Psi4 exiting successfully. Buy a developer a beer!
