                               Psi4 1.9.1 release

  ==> Input File <==

--------------------------------------------------------------------------
molecule {
-1 2
O           0.000000           0.000000           0.000000
C           0.000000           0.000000           1.776435
}

set {
basis              cc-pvtz
reference          uks
maxiter            500
DAMPING_PERCENTAGE 1
E_CONVERGENCE      1.0E-8
D_CONVERGENCE      1.0E-8
DIIS_MAX_VECS      400
MBIS_MAXITER       8000
guess              read
}

E, wfn = energy('b3lyp', restart_file='last_wfn', return_wfn=True)
properties('b3lyp','MBIS_CHARGES', wfn=wfn)
wfn.to_file('last_wfn')
--------------------------------------------------------------------------

    Molecular point group: c2v
  Charge       = -1
  Multiplicity = 2
  Basis Set: CC-PVTZ
    Blend: CC-PVTZ
  Basis Set: (CC-PVTZ AUX)
    Blend: CC-PVTZ-JKFIT
  @DF-UKS Final Energy:  -113.14676382531870
    Total Energy =                       -113.1467638253187005
 Dipole X            :          0.0000000            0.0000000            0.0000000
 Dipole Y            :          0.0000000            0.0000000            0.0000000
 Dipole Z            :         -0.1181348           -0.0036588           -0.1217937
 Magnitude           :                                                    0.1217937
    Molecular point group: c2v

    Geometry (in Angstrom), charge = -1, multiplicity = 2:

       Center              X                  Y                   Z               Mass
    ------------   -----------------  -----------------  -----------------  -----------------
         O            0.000000000000     0.000000000000    -0.761467584012    15.994914619570
         C            0.000000000000     0.000000000000     1.014967415988    12.000000000000

  Charge       = -1
  Multiplicity = 2
  Basis Set: CC-PVTZ
    Blend: CC-PVTZ
  Basis Set: (CC-PVTZ AUX)
    Blend: CC-PVTZ-JKFIT

    Orbital Energies [Eh]
    ---------------------

    Alpha Occupied:

       1A1   -18.846997     2A1   -10.013072     3A1    -0.584642
       4A1    -0.279114     5A1    -0.035778     1B1    -0.033143
       1B2     0.000594     2B1     0.061137

    Alpha Virtual:

       2B2     0.149851     6A1     0.279477     3B1     0.536833
       7A1     0.537000     3B2     0.546179     8A1     0.609588
       9A1     0.838271     4B1     0.877965     4B2     0.886807
       1A2     0.918009    10A1     0.919540     5B2     1.021788
       5B1     1.021886    11A1     1.205782    12A1     1.507126
       2A2     1.793612    13A1     1.794611     6B1     1.896772
       6B2     1.898965    14A1     1.995909     7B1     2.225601
       7B2     2.236532    15A1     2.612996     8B1     2.924526
       8B2     2.924912     3A2     2.947425    16A1     2.949016
       9B1     3.061572     9B2     3.062496    17A1     3.105868
       4A2     3.184513    18A1     3.188279    10B1     3.338225
      10B2     3.344304    19A1     3.459460    11B1     3.950543
      11B2     3.964541    20A1     4.028574    21A1     4.635003
      12B1     5.454702    12B2     5.454875     5A2     5.460870
      22A1     5.461859    13B2     5.582585    13B1     5.582681
      23A1     5.792077     6A2     6.523117    24A1     6.525710
      14B1     6.709809    14B2     6.719839    25A1     7.073946
      26A1     8.414326

    Beta Occupied:

       1A1   -18.853458     2A1    -9.994924     3A1    -0.600993
       4A1    -0.221920     1B2    -0.035291     5A1    -0.032008
       1B1    -0.000780

    Beta Virtual:

       2B2     0.175220     2B1     0.204105     6A1     0.293482
       7A1     0.547691     3B2     0.573770     3B1     0.593278
       8A1     0.635566     9A1     0.838494     4B2     0.869534
       4B1     0.890449     1A2     0.967413    10A1     0.967486
       5B2     1.029894     5B1     1.047165    11A1     1.217742
      12A1     1.503699     2A2     1.783125    13A1     1.783253
       6B2     1.889065     6B1     1.910049    14A1     1.999981
       7B2     2.269915     7B1     2.297257    15A1     2.633948
       8B2     2.991042     8B1     2.991161    16A1     2.993007
       3A2     2.993321     9B2     3.085399     9B1     3.108495
      17A1     3.122243    18A1     3.270062     4A2     3.270670
      10B2     3.368087    10B1     3.393976    19A1     3.485689
      11B2     3.927364    11B1     3.959531    20A1     4.055259
      21A1     4.636038    12B2     5.439551    12B1     5.439642
      22A1     5.448389     5A2     5.448647    13B2     5.559976
      13B1     5.584656    23A1     5.783839    24A1     6.503742
       6A2     6.503944    14B2     6.683863    14B1     6.714097
      25A1     7.063808    26A1     8.402142

    Final Occupation by Irrep:
             A1    A2    B1    B2
    DOCC [     5,    0,    1,    1 ]
    SOCC [     0,    0,    1,    0 ]
    NA   [     5,    0,    2,    1 ]
    NB   [     5,    0,    1,    1 ]

  @DF-UKS Final Energy:  -113.14676382814156

   => Energetics <=

    Nuclear Repulsion Energy =             14.2985845877614448
    One-Electron Energy =                -187.3060953438861134
    Two-Electron Energy =                  71.1317589501544632
    DFT Exchange-Correlation Energy =     -11.2710120221713499
    Empirical Dispersion Energy =           0.0000000000000000
    VV10 Nonlocal Energy =                  0.0000000000000000
    Total Energy =                       -113.1467638281415589

  UHF NO Occupations:
  HONO-2 :    5 A1 1.9973372
  HONO-1 :    1 B2 1.9196398
  HONO-0 :    2 B1 1.0000000
  LUNO+0 :    2 B2 0.0803602
  LUNO+1 :    6 A1 0.0026628
  LUNO+2 :    7 A1 0.0006044
  LUNO+3 :    3 B1 0.0005682

Computation Completed

Properties will be evaluated at   0.000000,   0.000000,   0.000000 [a0]

Properties computed using the B3LYP density matrix

 Multipole Moments:

 ------------------------------------------------------------------------------------
     Multipole            Electronic (a.u.)      Nuclear  (a.u.)        Total (a.u.)
 ------------------------------------------------------------------------------------

 L = 1.  Multiply by 2.5417464519 to convert [e a0] to [Debye]
 Dipole X            :          0.0000000            0.0000000            0.0000000
 Dipole Y            :          0.0000000            0.0000000            0.0000000
 Dipole Z            :         -0.1181353           -0.0036588           -0.1217941
 Magnitude           :                                                    0.1217941

 L = 2.  Multiply by 1.3450342976 to convert [e a0^2] to [Debye ang]
 Quadrupole XX       :        -11.2084307            0.0000000          -11.2084307
 Quadrupole XY       :          0.0000000            0.0000000            0.0000000
 Quadrupole XZ       :          0.0000000            0.0000000            0.0000000
 Quadrupole YY       :        -10.0266723            0.0000000          -10.0266723
 Quadrupole YZ       :          0.0000000            0.0000000            0.0000000
 Quadrupole ZZ       :        -52.9952221           38.6375508          -14.3576713
 Traceless XX        :         13.5350110          -12.8791836            0.6558274
 Traceless YY        :         14.7167694          -12.8791836            1.8375858
 Traceless ZZ        :        -28.2517804           25.7583672           -2.4934132

 ------------------------------------------------------------------------------------
  ==> Computing MBIS Charges <==

  Electron Count from Grid (Expected Number): 15.00000 (15.00000)
  Difference: -0.00000

  MBIS Charges: (a.u.)
   Center  Symbol  Z      Pop.       Charge
      1       O    8    8.600024   -0.600024
      2       C    6    6.399976   -0.399976

  MBIS Dipoles: [e a0]
   Center  Symbol  Z        X           Y           Z
      1       O    8    0.000000   -0.000000    0.022719
      2       C    6   -0.000000    0.000000   -0.240770

  MBIS Quadrupoles: [e a0^2]
   Center  Symbol  Z      XX        XY        XZ        YY        YZ        ZZ
      1       O    8   -4.9147   -0.0000   -0.0000   -4.6111   -0.0000   -4.6166
      2       C    6   -6.2937    0.0000    0.0000   -5.4156    0.0000   -6.0382

  MBIS Octupoles: [e a0^3]
   Center  Symbol  Z      XXX       XXY       XXZ       XYY       XYZ       XZZ       YYY       YYZ       YZZ       ZZZ
      1       O    8   -0.0000   -0.0000    0.0116   -0.0000    0.0000   -0.0000   -0.0000   -0.0496   -0.0000   -0.1881
      2       C    6   -0.0000   -0.0000   -0.3252    0.0000    0.0000    0.0000    0.0000   -0.0200    0.0000    0.1059

  MBIS Radial Moments:
   Center  Symbol  Z      [a0^2]      [a0^3]      [a0^4]
      1       O    8   14.142441   28.641322   69.124827
      2       C    6   17.747509   47.787447   151.615090

  MBIS Valence Widths: [a0]
   Center  Symbol  Z     Width
      1       O    8    0.413357
      2       C    6    0.566571

*** tstop() called on Mac.lan at Sun Aug 10 17:43:58 2025
Module time:
	user time   =       4.11 seconds =       0.07 minutes
	system time =       1.41 seconds =       0.02 minutes
	total time  =          0 seconds =       0.00 minutes
Total time:
	user time   =      24.04 seconds =       0.40 minutes
	system time =       3.65 seconds =       0.06 minutes
	total time  =          2 seconds =       0.03 minutes

    Psi4 stopped on: Sunday, 10 August 2025 05:43PM
    Psi4 wall time for execution: 0:00:02.66

*** Psi4 exiting successfully. Buy a developer a beer!
