                               Psi4 1.9.1 release

  ==> Input File <==

--------------------------------------------------------------------------
molecule {
-1 1
O           0.000000           0.000000           0.000000
H           0.000000           0.000000           0.955207
}

set {
basis              cc-pvtz
reference          uks
maxiter            500
DAMPING_PERCENTAGE 1
E_CONVERGENCE      1.0E-8
D_CONVERGENCE      1.0E-8
DIIS_MAX_VECS      400
MBIS_MAXITER       8000
guess              read
}

E, wfn = energy('b3lyp', restart_file='last_wfn', return_wfn=True)
properties('b3lyp','MBIS_CHARGES', wfn=wfn)
wfn.to_file('last_wfn')
--------------------------------------------------------------------------

    Molecular point group: c2v
  Charge       = -1
  Multiplicity = 1
  Basis Set: CC-PVTZ
    Blend: CC-PVTZ
  Basis Set: (CC-PVTZ AUX)
    Blend: CC-PVTZ-JKFIT
  @DF-UKS Final Energy:   -75.79019350250138
    Total Energy =                        -75.7901935025013813
 Dipole X            :          0.0000000            0.0000000            0.0000000
 Dipole Y            :          0.0000000            0.0000000            0.0000000
 Dipole Z            :         -0.4053809            0.8421266            0.4367457
 Magnitude           :                                                    0.4367457
    Molecular point group: c2v

    Geometry (in Angstrom), charge = -1, multiplicity = 1:

       Center              X                  Y                   Z               Mass
    ------------   -----------------  -----------------  -----------------  -----------------
         O            0.000000000000     0.000000000000    -0.056619200510    15.994914619570
         H            0.000000000000     0.000000000000     0.898587799490     1.007825032230

  Charge       = -1
  Multiplicity = 1
  Basis Set: CC-PVTZ
    Blend: CC-PVTZ
  Basis Set: (CC-PVTZ AUX)
    Blend: CC-PVTZ-JKFIT

    Orbital Energies [Eh]
    ---------------------

    Alpha Occupied:

       1A1   -18.667771     2A1    -0.521633     3A1    -0.024587
       1B2     0.118434     1B1     0.118434

    Alpha Virtual:

       4A1     0.316956     5A1     0.732257     6A1     0.852651
       2B1     0.944916     2B2     0.944916     3B1     1.054192
       3B2     1.054192     7A1     1.252541     8A1     1.646093
       9A1     1.885959     1A2     1.885959     4B1     2.188234
       4B2     2.188234    10A1     2.259689    11A1     2.852694
      12A1     3.596130     2A2     3.596130     5B1     3.792763
       5B2     3.792763     6B1     4.037020     6B2     4.037020
      13A1     4.096474     7B1     4.501802     7B2     4.501802
      14A1     4.814599    15A1     5.097590     8B2     5.587914
       8B1     5.587914    16A1     5.852900     3A2     5.852900
       4A2     6.678049    17A1     6.678050     9B2     6.825587
       9B1     6.825587    18A1     6.860195    10B2     7.079725
      10B1     7.079725    19A1     7.480702    20A1    10.766498

    Beta Occupied:

       1A1   -18.667771     2A1    -0.521633     3A1    -0.024587
       1B2     0.118434     1B1     0.118434

    Beta Virtual:

       4A1     0.316956     5A1     0.732257     6A1     0.852651
       2B1     0.944916     2B2     0.944916     3B1     1.054192
       3B2     1.054192     7A1     1.252541     8A1     1.646093
       9A1     1.885959     1A2     1.885959     4B1     2.188234
       4B2     2.188234    10A1     2.259689    11A1     2.852694
      12A1     3.596130     2A2     3.596130     5B1     3.792763
       5B2     3.792763     6B1     4.037020     6B2     4.037020
      13A1     4.096474     7B1     4.501802     7B2     4.501802
      14A1     4.814599    15A1     5.097590     8B2     5.587914
       8B1     5.587914    16A1     5.852900     3A2     5.852900
       4A2     6.678049    17A1     6.678050     9B2     6.825587
       9B1     6.825587    18A1     6.860195    10B2     7.079725
      10B1     7.079725    19A1     7.480702    20A1    10.766498

    Final Occupation by Irrep:
             A1    A2    B1    B2
    DOCC [     3,    0,    1,    1 ]
    SOCC [     0,    0,    0,    0 ]
    NA   [     3,    0,    1,    1 ]
    NB   [     3,    0,    1,    1 ]

  @DF-UKS Final Energy:   -75.79019350215154

   => Energetics <=

    Nuclear Repulsion Energy =              4.4319374600060515
    One-Electron Energy =                -117.1243760849021243
    Two-Electron Energy =                  44.3727189813145060
    DFT Exchange-Correlation Energy =      -7.4704738585699699
    Empirical Dispersion Energy =           0.0000000000000000
    VV10 Nonlocal Energy =                  0.0000000000000000
    Total Energy =                        -75.7901935021515385

  UHF NO Occupations:
  HONO-2 :    2 A1 2.0000000
  HONO-1 :    1 B2 2.0000000
  HONO-0 :    3 A1 2.0000000
  LUNO+0 :    4 A1 0.0000000
  LUNO+1 :    5 A1 0.0000000
  LUNO+2 :    6 A1 0.0000000
  LUNO+3 :    7 A1 0.0000000

Computation Completed

Properties will be evaluated at   0.000000,   0.000000,   0.000000 [a0]

Properties computed using the B3LYP density matrix

 Multipole Moments:

 ------------------------------------------------------------------------------------
     Multipole            Electronic (a.u.)      Nuclear  (a.u.)        Total (a.u.)
 ------------------------------------------------------------------------------------

 L = 1.  Multiply by 2.5417464519 to convert [e a0] to [Debye]
 Dipole X            :          0.0000000            0.0000000            0.0000000
 Dipole Y            :          0.0000000            0.0000000            0.0000000
 Dipole Z            :         -0.4053809            0.8421266            0.4367457
 Magnitude           :                                                    0.4367457

 L = 2.  Multiply by 1.3450342976 to convert [e a0^2] to [Debye ang]
 Quadrupole XX       :         -6.2996070            0.0000000           -6.2996070
 Quadrupole XY       :          0.0000000            0.0000000            0.0000000
 Quadrupole XZ       :          0.0000000            0.0000000            0.0000000
 Quadrupole YY       :         -6.2996070            0.0000000           -6.2996070
 Quadrupole YZ       :          0.0000000            0.0000000            0.0000000
 Quadrupole ZZ       :         -8.1274790            2.9750752           -5.1524038
 Traceless XX        :          0.6092906           -0.9916917           -0.3824011
 Traceless YY        :          0.6092906           -0.9916917           -0.3824011
 Traceless ZZ        :         -1.2185813            1.9833835            0.7648022

 ------------------------------------------------------------------------------------
  ==> Computing MBIS Charges <==

  Electron Count from Grid (Expected Number): 10.00000 (10.00000)
  Difference: -0.00000

  MBIS Charges: (a.u.)
   Center  Symbol  Z      Pop.       Charge
      1       O    8    9.242404   -1.242404
      2       H    1    0.757596    0.242404

  MBIS Dipoles: [e a0]
   Center  Symbol  Z        X           Y           Z
      1       O    8    0.000000   -0.000000   -0.120154
      2       H    1    0.000000    0.000000    0.012347

  MBIS Quadrupoles: [e a0^2]
   Center  Symbol  Z      XX        XY        XZ        YY        YZ        ZZ
      1       O    8   -5.7781   -0.0000    0.0000   -5.7781    0.0000   -5.3851
      2       H    1   -0.5215    0.0000    0.0000   -0.5215    0.0000   -0.5197

  MBIS Octupoles: [e a0^3]
   Center  Symbol  Z      XXX       XXY       XXZ       XYY       XYZ       XZZ       YYY       YYZ       YZZ       ZZZ
      1       O    8   -0.0000   -0.0000   -0.1629    0.0000   -0.0000    0.0000   -0.0000   -0.1629    0.0000   -0.8838
      2       H    1   -0.0000    0.0000    0.0007    0.0000    0.0000    0.0000    0.0000    0.0007    0.0000   -0.0127

  MBIS Radial Moments:
   Center  Symbol  Z      [a0^2]      [a0^3]      [a0^4]
      1       O    8   16.941331   35.885163   89.990404
      2       H    1    1.562676    3.243738    7.996213

  MBIS Valence Widths: [a0]
   Center  Symbol  Z     Width
      1       O    8    0.433475
      2       H    1    0.412995

*** tstop() called on Mac.lan at Sun Aug 10 17:37:56 2025
Module time:
	user time   =       3.87 seconds =       0.06 minutes
	system time =       1.25 seconds =       0.02 minutes
	total time  =          1 seconds =       0.02 minutes
Total time:
	user time   =      13.27 seconds =       0.22 minutes
	system time =       3.24 seconds =       0.05 minutes
	total time  =          2 seconds =       0.03 minutes

    Psi4 stopped on: Sunday, 10 August 2025 05:37PM
    Psi4 wall time for execution: 0:00:01.61

*** Psi4 exiting successfully. Buy a developer a beer!
