                               Psi4 1.9.1 release

  ==> Input File <==

--------------------------------------------------------------------------
molecule {
-1 1
O           0.000000           0.000000           0.000000
H           0.000000           0.000000           0.613354
}

set {
basis              cc-pvtz
reference          uks
maxiter            500
DAMPING_PERCENTAGE 1
E_CONVERGENCE      1.0E-8
D_CONVERGENCE      1.0E-8
DIIS_MAX_VECS      400
MBIS_MAXITER       8000
guess              read
}

E, wfn = energy('b3lyp', restart_file='last_wfn', return_wfn=True)
properties('b3lyp','MBIS_CHARGES', wfn=wfn)
wfn.to_file('last_wfn')
--------------------------------------------------------------------------

    Molecular point group: c2v
  Charge       = -1
  Multiplicity = 1
  Basis Set: CC-PVTZ
    Blend: CC-PVTZ
  Basis Set: (CC-PVTZ AUX)
    Blend: CC-PVTZ-JKFIT
  @DF-UKS Final Energy:   -75.49619754089264
    Total Energy =                        -75.4961975408926378
 Dipole X            :          0.0000000            0.0000000            0.0000000
 Dipole Y            :          0.0000000            0.0000000            0.0000000
 Dipole Z            :          0.0894911            0.5407432            0.6302343
 Magnitude           :                                                    0.6302343
    Molecular point group: c2v

    Geometry (in Angstrom), charge = -1, multiplicity = 1:

       Center              X                  Y                   Z               Mass
    ------------   -----------------  -----------------  -----------------  -----------------
         O            0.000000000000     0.000000000000    -0.036356112455    15.994914619570
         H            0.000000000000     0.000000000000     0.576997887545     1.007825032230

  Charge       = -1
  Multiplicity = 1
  Basis Set: CC-PVTZ
    Blend: CC-PVTZ
  Basis Set: (CC-PVTZ AUX)
    Blend: CC-PVTZ-JKFIT

    Orbital Energies [Eh]
    ---------------------

    Alpha Occupied:

       1A1   -18.609881     2A1    -0.649445     3A1    -0.037758
       1B1     0.117754     1B2     0.117754

    Alpha Virtual:

       4A1     0.334519     5A1     0.804624     2B1     0.910983
       2B2     0.910983     6A1     1.008927     3B1     1.162435
       3B2     1.162435     7A1     1.175116     1A2     1.893180
       8A1     1.893180     9A1     2.140785     4B1     2.276409
       4B2     2.276409    10A1     2.489512    11A1     3.275456
       5B1     3.756029     5B2     3.756029    12A1     3.829174
       2A2     3.829174     6B2     4.147893     6B1     4.147893
      13A1     4.390828     7B1     5.041320     7B2     5.041320
      14A1     5.141440     8B1     5.590303     8B2     5.590303
      15A1     6.435100     3A2     6.435100    16A1     6.487788
       9B2     6.616578     9B1     6.616578     4A2     6.679030
      17A1     6.679030    18A1     8.311708    19A1     8.575906
      10B1     8.921473    10B2     8.921473    20A1    15.674560

    Beta Occupied:

       1A1   -18.609881     2A1    -0.649445     3A1    -0.037758
       1B1     0.117754     1B2     0.117754

    Beta Virtual:

       4A1     0.334519     5A1     0.804624     2B1     0.910983
       2B2     0.910983     6A1     1.008927     3B1     1.162435
       3B2     1.162435     7A1     1.175116     1A2     1.893180
       8A1     1.893180     9A1     2.140785     4B1     2.276409
       4B2     2.276409    10A1     2.489512    11A1     3.275456
       5B1     3.756029     5B2     3.756029    12A1     3.829174
       2A2     3.829174     6B2     4.147893     6B1     4.147893
      13A1     4.390828     7B1     5.041320     7B2     5.041320
      14A1     5.141440     8B1     5.590303     8B2     5.590303
      15A1     6.435100     3A2     6.435100    16A1     6.487788
       9B2     6.616578     9B1     6.616578     4A2     6.679030
      17A1     6.679030    18A1     8.311708    19A1     8.575906
      10B1     8.921473    10B2     8.921473    20A1    15.674560

    Final Occupation by Irrep:
             A1    A2    B1    B2
    DOCC [     3,    0,    1,    1 ]
    SOCC [     0,    0,    0,    0 ]
    NA   [     3,    0,    1,    1 ]
    NB   [     3,    0,    1,    1 ]

  @DF-UKS Final Energy:   -75.49619754091097

   => Energetics <=

    Nuclear Repulsion Energy =              6.9020788734727416
    One-Electron Energy =                -121.1670106995038054
    Two-Electron Energy =                  46.4416045000470064
    DFT Exchange-Correlation Energy =      -7.6728702149269230
    Empirical Dispersion Energy =           0.0000000000000000
    VV10 Nonlocal Energy =                  0.0000000000000000
    Total Energy =                        -75.4961975409109698

  UHF NO Occupations:
  HONO-2 :    2 A1 2.0000000
  HONO-1 :    1 B1 2.0000000
  HONO-0 :    3 A1 2.0000000
  LUNO+0 :    4 A1 0.0000000
  LUNO+1 :    5 A1 0.0000000
  LUNO+2 :    6 A1 0.0000000
  LUNO+3 :    7 A1 0.0000000

Computation Completed

Properties will be evaluated at   0.000000,   0.000000,   0.000000 [a0]

Properties computed using the B3LYP density matrix

 Multipole Moments:

 ------------------------------------------------------------------------------------
     Multipole            Electronic (a.u.)      Nuclear  (a.u.)        Total (a.u.)
 ------------------------------------------------------------------------------------

 L = 1.  Multiply by 2.5417464519 to convert [e a0] to [Debye]
 Dipole X            :          0.0000000            0.0000000            0.0000000
 Dipole Y            :          0.0000000            0.0000000            0.0000000
 Dipole Z            :          0.0894911            0.5407432            0.6302343
 Magnitude           :                                                    0.6302343

 L = 2.  Multiply by 1.3450342976 to convert [e a0^2] to [Debye ang]
 Quadrupole XX       :         -5.9914213            0.0000000           -5.9914213
 Quadrupole XY       :          0.0000000            0.0000000            0.0000000
 Quadrupole XZ       :          0.0000000            0.0000000            0.0000000
 Quadrupole YY       :         -5.9914213            0.0000000           -5.9914213
 Quadrupole YZ       :          0.0000000            0.0000000            0.0000000
 Quadrupole ZZ       :         -6.1651173            1.2266633           -4.9384541
 Traceless XX        :          0.0578987           -0.4088878           -0.3509891
 Traceless YY        :          0.0578987           -0.4088878           -0.3509891
 Traceless ZZ        :         -0.1157974            0.8177755            0.7019781

 ------------------------------------------------------------------------------------
  ==> Computing MBIS Charges <==

  Electron Count from Grid (Expected Number): 10.00000 (10.00000)
  Difference:  0.00000

  MBIS Charges: (a.u.)
   Center  Symbol  Z      Pop.       Charge
      1       O    8    9.509936   -1.509936
      2       H    1    0.490064    0.509936

  MBIS Dipoles: [e a0]
   Center  Symbol  Z        X           Y           Z
      1       O    8   -0.000000   -0.000000   -0.043440
      2       H    1    0.000000    0.000000    0.013919

  MBIS Quadrupoles: [e a0^2]
   Center  Symbol  Z      XX        XY        XZ        YY        YZ        ZZ
      1       O    8   -5.8801    0.0000    0.0000   -5.8801   -0.0000   -5.4651
      2       H    1   -0.1113    0.0000   -0.0000   -0.1113   -0.0000   -0.1088

  MBIS Octupoles: [e a0^3]
   Center  Symbol  Z      XXX       XXY       XXZ       XYY       XYZ       XZZ       YYY       YYZ       YZZ       ZZZ
      1       O    8   -0.0000   -0.0000    0.1371   -0.0000    0.0000    0.0000   -0.0000    0.1371   -0.0000    0.0768
      2       H    1    0.0000    0.0000    0.0027   -0.0000    0.0000    0.0000   -0.0000    0.0027    0.0000    0.0057

  MBIS Radial Moments:
   Center  Symbol  Z      [a0^2]      [a0^3]      [a0^4]
      1       O    8   17.225275   36.074527   88.884555
      2       H    1    0.331481    0.390887    0.554975

  MBIS Valence Widths: [a0]
   Center  Symbol  Z     Width
      1       O    8    0.429039
      2       H    1    0.238861

*** tstop() called on Mac.lan at Sun Aug 10 17:37:21 2025
Module time:
	user time   =       2.93 seconds =       0.05 minutes
	system time =       3.37 seconds =       0.06 minutes
	total time  =          1 seconds =       0.02 minutes
Total time:
	user time   =      11.74 seconds =       0.20 minutes
	system time =       5.40 seconds =       0.09 minutes
	total time  =          2 seconds =       0.03 minutes

    Psi4 stopped on: Sunday, 10 August 2025 05:37PM
    Psi4 wall time for execution: 0:00:01.67

*** Psi4 exiting successfully. Buy a developer a beer!
