                               Psi4 1.9.1 release

  ==> Input File <==

--------------------------------------------------------------------------
molecule {
-1 2
C           0.000000           0.000000           0.000000
C           0.000000           0.000000           1.059063
}

set {
basis              cc-pvtz
reference          uks
maxiter            500
DAMPING_PERCENTAGE 1
E_CONVERGENCE      1.0E-8
D_CONVERGENCE      1.0E-8
DIIS_MAX_VECS      400
MBIS_MAXITER       8000
guess              read
}

E, wfn = energy('b3lyp', restart_file='last_wfn', return_wfn=True)
properties('b3lyp','MBIS_CHARGES', wfn=wfn)
wfn.to_file('last_wfn')
--------------------------------------------------------------------------

    Molecular point group: d2h
  Charge       = -1
  Multiplicity = 2
  Basis Set: CC-PVTZ
    Blend: CC-PVTZ
  Basis Set: (CC-PVTZ AUX)
    Blend: CC-PVTZ-JKFIT
  @DF-UKS Final Energy:   -75.97591610505813
    Total Energy =                        -75.9759161050581326
 Dipole X            :          0.0000000            0.0000000            0.0000000
 Dipole Y            :          0.0000000            0.0000000            0.0000000
 Dipole Z            :          0.0000000            0.0000000            0.0000000
 Magnitude           :                                                    0.0000000
    Molecular point group: d2h

    Geometry (in Angstrom), charge = -1, multiplicity = 2:

       Center              X                  Y                   Z               Mass
    ------------   -----------------  -----------------  -----------------  -----------------
         C            0.000000000000     0.000000000000    -0.529531500000    12.000000000000
         C            0.000000000000     0.000000000000     0.529531500000    12.000000000000

  Charge       = -1
  Multiplicity = 2
  Basis Set: CC-PVTZ
    Blend: CC-PVTZ
  Basis Set: (CC-PVTZ AUX)
    Blend: CC-PVTZ-JKFIT

    Orbital Energies [Eh]
    ---------------------

    Alpha Occupied:

       1Ag    -9.861326     1B1u   -9.852838     2Ag    -0.503895
       2B1u   -0.078290     1B3u   -0.039986     1B2u   -0.039986
       3Ag    -0.028623

    Alpha Virtual:

       1B3g    0.346367     1B2g    0.346367     3B1u    0.400837
       4Ag     0.491623     2B3u    0.514724     2B2u    0.514724
       5Ag     0.639572     2B3g    0.675522     2B2g    0.675522
       4B1u    0.837171     6Ag     0.871646     1B1g    0.871646
       5B1u    1.102966     3B3u    1.126784     3B2u    1.126784
       6B1u    1.201711     1Au     1.201711     7Ag     1.390227
       3B2g    1.424323     3B3g    1.424323     7B1u    2.057409
       4B3u    2.204487     4B2u    2.204487     8Ag     2.479590
       4B2g    2.641794     4B3g    2.641794     8B1u    2.679494
       5B2u    2.784810     5B3u    2.784810     9Ag     2.798815
       2B1g    2.798816     6B3u    2.942182     6B2u    2.942182
      10Ag     3.129606     5B2g    3.248630     5B3g    3.248630
       6B3g    3.312254     6B2g    3.312254    11Ag     3.324928
       3B1g    3.324929     9B1u    3.343309     2Au     3.343310
      12Ag     3.816098    10B1u    3.818998     7B2u    3.996970
       7B3u    3.996970    11B1u    4.142341     3Au     4.142341
      12B1u    4.842689     7B2g    5.380866     7B3g    5.380866
      13Ag     6.059527    13B1u   16.706117

    Beta Occupied:

       1Ag    -9.851869     1B1u   -9.843948     2Ag    -0.471155
       1B3u   -0.030722     1B2u   -0.030722     2B1u   -0.014852

    Beta Virtual:

       3Ag     0.103397     1B3g    0.359498     1B2g    0.359498
       3B1u    0.412626     4Ag     0.512943     2B3u    0.519447
       2B2u    0.519447     5Ag     0.663467     2B3g    0.685582
       2B2g    0.685582     4B1u    0.859160     6Ag     0.874167
       1B1g    0.874167     5B1u    1.127713     3B3u    1.150621
       3B2u    1.150621     6B1u    1.209539     1Au     1.209539
       7Ag     1.424106     3B2g    1.441383     3B3g    1.441383
       7B1u    2.097757     4B3u    2.212735     4B2u    2.212735
       8Ag     2.506780     4B2g    2.648237     4B3g    2.648237
       8B1u    2.710449     5B2u    2.786708     5B3u    2.786708
       9Ag     2.806772     2B1g    2.806773     6B3u    2.980468
       6B2u    2.980468    10Ag     3.190511     5B2g    3.292619
       5B3g    3.292619     6B3g    3.316516     6B2g    3.316516
      11Ag     3.341791     3B1g    3.341792     9B1u    3.359526
       2Au     3.359527    12Ag     3.845578    10B1u    3.860490
       7B2u    4.030945     7B3u    4.030945    11B1u    4.154721
       3Au     4.154721    12B1u    4.887641     7B2g    5.409226
       7B3g    5.409226    13Ag     6.082148    13B1u   16.722745

    Final Occupation by Irrep:
             Ag   B1g   B2g   B3g    Au   B1u   B2u   B3u
    DOCC [     2,    0,    0,    0,    0,    2,    1,    1 ]
    SOCC [     1,    0,    0,    0,    0,    0,    0,    0 ]
    NA   [     3,    0,    0,    0,    0,    2,    1,    1 ]
    NB   [     2,    0,    0,    0,    0,    2,    1,    1 ]

  @DF-UKS Final Energy:   -75.97591610547708

   => Energetics <=

    Nuclear Repulsion Energy =             17.9879568865308279
    One-Electron Energy =                -140.8240867569948591
    Two-Electron Energy =                  55.8222598376156753
    DFT Exchange-Correlation Energy =      -8.9620460726287252
    Empirical Dispersion Energy =           0.0000000000000000
    VV10 Nonlocal Energy =                  0.0000000000000000
    Total Energy =                        -75.9759161054770829

  UHF NO Occupations:
  HONO-2 :    2 Ag 1.9997506
  HONO-1 :    2B1u 1.9986366
  HONO-0 :    3 Ag 1.0000000
  LUNO+0 :    3B1u 0.0013634
  LUNO+1 :    4 Ag 0.0002494
  LUNO+2 :    2B2u 0.0000786
  LUNO+3 :    2B3u 0.0000786

Computation Completed

Properties will be evaluated at   0.000000,   0.000000,   0.000000 [a0]

Properties computed using the B3LYP density matrix

 Multipole Moments:

 ------------------------------------------------------------------------------------
     Multipole            Electronic (a.u.)      Nuclear  (a.u.)        Total (a.u.)
 ------------------------------------------------------------------------------------

 L = 1.  Multiply by 2.5417464519 to convert [e a0] to [Debye]
 Dipole X            :          0.0000000            0.0000000            0.0000000
 Dipole Y            :          0.0000000            0.0000000            0.0000000
 Dipole Z            :          0.0000000            0.0000000            0.0000000
 Magnitude           :                                                    0.0000000

 L = 2.  Multiply by 1.3450342976 to convert [e a0^2] to [Debye ang]
 Quadrupole XX       :        -10.7861569            0.0000000          -10.7861569
 Quadrupole XY       :          0.0000000            0.0000000            0.0000000
 Quadrupole XZ       :          0.0000000            0.0000000            0.0000000
 Quadrupole YY       :        -10.7861569            0.0000000          -10.7861569
 Quadrupole YZ       :          0.0000000            0.0000000            0.0000000
 Quadrupole ZZ       :        -25.2708145           12.0160736          -13.2547409
 Traceless XX        :          4.8282192           -4.0053579            0.8228613
 Traceless YY        :          4.8282192           -4.0053579            0.8228613
 Traceless ZZ        :         -9.6564384            8.0107157           -1.6457227

 ------------------------------------------------------------------------------------
  ==> Computing MBIS Charges <==

  Electron Count from Grid (Expected Number): 13.00000 (13.00000)
  Difference: -0.00000

  MBIS Charges: (a.u.)
   Center  Symbol  Z      Pop.       Charge
      1       C    6    6.500000   -0.500000
      2       C    6    6.500000   -0.500000

  MBIS Dipoles: [e a0]
   Center  Symbol  Z        X           Y           Z
      1       C    6   -0.000000    0.000000    0.007877
      2       C    6   -0.000000    0.000000   -0.007877

  MBIS Quadrupoles: [e a0^2]
   Center  Symbol  Z      XX        XY        XZ        YY        YZ        ZZ
      1       C    6   -5.3931   -0.0000   -0.0000   -5.3931   -0.0000   -6.1109
      2       C    6   -5.3931   -0.0000    0.0000   -5.3931    0.0000   -6.1109

  MBIS Octupoles: [e a0^3]
   Center  Symbol  Z      XXX       XXY       XXZ       XYY       XYZ       XZZ       YYY       YYZ       YZZ       ZZZ
      1       C    6   -0.0000    0.0000    0.1873   -0.0000   -0.0000   -0.0000    0.0000    0.1873    0.0000    0.9280
      2       C    6   -0.0000    0.0000   -0.1873   -0.0000    0.0000   -0.0000    0.0000   -0.1873    0.0000   -0.9280

  MBIS Radial Moments:
   Center  Symbol  Z      [a0^2]      [a0^3]      [a0^4]
      1       C    6   16.897092   44.598506   140.365396
      2       C    6   16.897092   44.598506   140.365396

  MBIS Valence Widths: [a0]
   Center  Symbol  Z     Width
      1       C    6    0.542733
      2       C    6    0.542733

*** tstop() called on Mac.lan at Sun Aug 10 17:29:38 2025
Module time:
	user time   =       5.16 seconds =       0.09 minutes
	system time =       2.28 seconds =       0.04 minutes
	total time  =          1 seconds =       0.02 minutes
Total time:
	user time   =      18.06 seconds =       0.30 minutes
	system time =       4.23 seconds =       0.07 minutes
	total time  =          2 seconds =       0.03 minutes

    Psi4 stopped on: Sunday, 10 August 2025 05:29PM
    Psi4 wall time for execution: 0:00:02.18

*** Psi4 exiting successfully. Buy a developer a beer!
