                               Psi4 1.9.1 release

  ==> Input File <==

--------------------------------------------------------------------------
molecule {
-1 1
N           0.000000           0.000000           0.000000
C           0.000000           0.000000           1.481101
}

set {
basis              cc-pvtz
reference          uks
maxiter            500
DAMPING_PERCENTAGE 1
E_CONVERGENCE      1.0E-8
D_CONVERGENCE      1.0E-8
DIIS_MAX_VECS      400
MBIS_MAXITER       8000
guess              read
}

E, wfn = energy('b3lyp', restart_file='last_wfn', return_wfn=True)
properties('b3lyp','MBIS_CHARGES', wfn=wfn)
wfn.to_file('last_wfn')
--------------------------------------------------------------------------

    Molecular point group: c2v
  Charge       = -1
  Multiplicity = 1
  Basis Set: CC-PVTZ
    Blend: CC-PVTZ
  Basis Set: (CC-PVTZ AUX)
    Blend: CC-PVTZ-JKFIT
  @DF-UKS Final Energy:   -92.77838221694546
    Total Energy =                        -92.7783822169454453
 Dipole X            :          0.0000000            0.0000000            0.0000000
 Dipole Y            :          0.0000000            0.0000000            0.0000000
 Dipole Z            :         -0.1241780            0.0019852           -0.1221927
 Magnitude           :                                                    0.1221927
    Molecular point group: c2v

    Geometry (in Angstrom), charge = -1, multiplicity = 1:

       Center              X                  Y                   Z               Mass
    ------------   -----------------  -----------------  -----------------  -----------------
         N            0.000000000000     0.000000000000    -0.683504265572    14.003074004430
         C            0.000000000000     0.000000000000     0.797596734428    12.000000000000

  Charge       = -1
  Multiplicity = 1
  Basis Set: CC-PVTZ
    Blend: CC-PVTZ
  Basis Set: (CC-PVTZ AUX)
    Blend: CC-PVTZ-JKFIT

    Orbital Energies [Eh]
    ---------------------

    Alpha Occupied:

       1A1   -14.069808     2A1    -9.971812     3A1    -0.505391
       4A1    -0.191225     5A1    -0.023414     1B2    -0.011605
       1B1    -0.011605

    Alpha Virtual:

       2B2     0.224434     2B1     0.224434     6A1     0.396437
       3B2     0.562859     3B1     0.562859     7A1     0.589455
       8A1     0.628188     9A1     0.722045     4B1     0.771131
       4B2     0.771131     1A2     0.930259    10A1     0.930259
       5B1     1.044804     5B2     1.044804    11A1     1.158359
      12A1     1.363046    13A1     1.392495     2A2     1.392495
       6B2     1.700011     6B1     1.700011    14A1     1.909818
       7B2     2.290209     7B1     2.290209    15A1     2.497651
       8B1     2.958712     8B2     2.958712     9B2     2.964056
       9B1     2.964056     3A2     2.968888    16A1     2.968889
      17A1     3.180332     4A2     3.253016    18A1     3.253018
      10B2     3.262632    10B1     3.262632    19A1     3.381684
      11B1     3.553302    11B2     3.553302    20A1     3.594786
      12B1     4.197542    12B2     4.197542    21A1     4.386536
       5A2     4.386537    22A1     4.627314    23A1     4.788381
       6A2     4.788395    13B2     4.810587    13B1     4.810587
      24A1     5.173567    14B2     5.272996    14B1     5.272996
      25A1     5.798054    26A1     8.181816

    Beta Occupied:

       1A1   -14.069808     2A1    -9.971812     3A1    -0.505391
       4A1    -0.191225     5A1    -0.023414     1B2    -0.011605
       1B1    -0.011605

    Beta Virtual:

       2B2     0.224434     2B1     0.224434     6A1     0.396437
       3B2     0.562859     3B1     0.562859     7A1     0.589455
       8A1     0.628188     9A1     0.722045     4B1     0.771131
       4B2     0.771131     1A2     0.930259    10A1     0.930259
       5B1     1.044804     5B2     1.044804    11A1     1.158359
      12A1     1.363046    13A1     1.392495     2A2     1.392495
       6B2     1.700011     6B1     1.700011    14A1     1.909818
       7B2     2.290209     7B1     2.290209    15A1     2.497651
       8B1     2.958712     8B2     2.958712     9B2     2.964056
       9B1     2.964056     3A2     2.968888    16A1     2.968889
      17A1     3.180332     4A2     3.253016    18A1     3.253018
      10B1     3.262632    10B2     3.262632    19A1     3.381684
      11B1     3.553302    11B2     3.553302    20A1     3.594786
      12B1     4.197542    12B2     4.197542    21A1     4.386536
       5A2     4.386537    22A1     4.627314    23A1     4.788381
       6A2     4.788395    13B2     4.810587    13B1     4.810587
      24A1     5.173567    14B2     5.272996    14B1     5.272996
      25A1     5.798054    26A1     8.181816

    Final Occupation by Irrep:
             A1    A2    B1    B2
    DOCC [     5,    0,    1,    1 ]
    SOCC [     0,    0,    0,    0 ]
    NA   [     5,    0,    1,    1 ]
    NB   [     5,    0,    1,    1 ]

  @DF-UKS Final Energy:   -92.77838221687449

   => Energetics <=

    Nuclear Repulsion Energy =             15.0060278455959466
    One-Electron Energy =                -158.8610324816997377
    Two-Electron Energy =                  60.9824777538496363
    DFT Exchange-Correlation Energy =      -9.9058553346203357
    Empirical Dispersion Energy =           0.0000000000000000
    VV10 Nonlocal Energy =                  0.0000000000000000
    Total Energy =                        -92.7783822168744905

  UHF NO Occupations:
  HONO-2 :    4 A1 2.0000000
  HONO-1 :    1 B1 2.0000000
  HONO-0 :    5 A1 2.0000000
  LUNO+0 :    6 A1 0.0000000
  LUNO+1 :    7 A1 0.0000000
  LUNO+2 :    8 A1 0.0000000
  LUNO+3 :    9 A1 0.0000000

Computation Completed

Properties will be evaluated at   0.000000,   0.000000,   0.000000 [a0]

Properties computed using the B3LYP density matrix

 Multipole Moments:

 ------------------------------------------------------------------------------------
     Multipole            Electronic (a.u.)      Nuclear  (a.u.)        Total (a.u.)
 ------------------------------------------------------------------------------------

 L = 1.  Multiply by 2.5417464519 to convert [e a0] to [Debye]
 Dipole X            :          0.0000000            0.0000000            0.0000000
 Dipole Y            :          0.0000000            0.0000000            0.0000000
 Dipole Z            :         -0.1241780            0.0019852           -0.1221927
 Magnitude           :                                                    0.1221927

 L = 2.  Multiply by 1.3450342976 to convert [e a0^2] to [Debye ang]
 Quadrupole XX       :        -10.9127157            0.0000000          -10.9127157
 Quadrupole XY       :          0.0000000            0.0000000            0.0000000
 Quadrupole XZ       :          0.0000000            0.0000000            0.0000000
 Quadrupole YY       :        -10.9127157            0.0000000          -10.9127157
 Quadrupole YZ       :          0.0000000            0.0000000            0.0000000
 Quadrupole ZZ       :        -39.8212770           25.3088859          -14.5123911
 Traceless XX        :          9.6361871           -8.4362953            1.1998918
 Traceless YY        :          9.6361871           -8.4362953            1.1998918
 Traceless ZZ        :        -19.2723742           16.8725906           -2.3997836

 ------------------------------------------------------------------------------------
  ==> Computing MBIS Charges <==

  Electron Count from Grid (Expected Number): 14.00000 (14.00000)
  Difference:  0.00000

  MBIS Charges: (a.u.)
   Center  Symbol  Z      Pop.       Charge
      1       N    7    7.559551   -0.559551
      2       C    6    6.440449   -0.440449

  MBIS Dipoles: [e a0]
   Center  Symbol  Z        X           Y           Z
      1       N    7   -0.000000   -0.000000    0.030328
      2       C    6   -0.000000    0.000000   -0.211396

  MBIS Quadrupoles: [e a0^2]
   Center  Symbol  Z      XX        XY        XZ        YY        YZ        ZZ
      1       N    7   -5.1718    0.0000    0.0000   -5.1718    0.0000   -5.4702
      2       C    6   -5.7409    0.0000   -0.0000   -5.7409    0.0000   -6.3925

  MBIS Octupoles: [e a0^3]
   Center  Symbol  Z      XXX       XXY       XXZ       XYY       XYZ       XZZ       YYY       YYZ       YZZ       ZZZ
      1       N    7    0.0000   -0.0000   -0.0910    0.0000   -0.0000   -0.0000   -0.0000   -0.0910    0.0000   -0.0928
      2       C    6   -0.0000   -0.0000   -0.0660   -0.0000   -0.0000   -0.0000    0.0000   -0.0660    0.0000   -0.3238

  MBIS Radial Moments:
   Center  Symbol  Z      [a0^2]      [a0^3]      [a0^4]
      1       N    7   15.813872   36.346227   99.202869
      2       C    6   17.874248   47.961945   151.452841

  MBIS Valence Widths: [a0]
   Center  Symbol  Z     Width
      1       N    7    0.476278
      2       C    6    0.566340

*** tstop() called on Mac.lan at Sun Aug 10 17:40:53 2025
Module time:
	user time   =       3.66 seconds =       0.06 minutes
	system time =       1.93 seconds =       0.03 minutes
	total time  =          1 seconds =       0.02 minutes
Total time:
	user time   =      17.77 seconds =       0.30 minutes
	system time =       4.27 seconds =       0.07 minutes
	total time  =          2 seconds =       0.03 minutes

    Psi4 stopped on: Sunday, 10 August 2025 05:40PM
    Psi4 wall time for execution: 0:00:02.13

*** Psi4 exiting successfully. Buy a developer a beer!
