                               Psi4 1.9.1 release

  ==> Input File <==

--------------------------------------------------------------------------
molecule {
-1 3
C           0.000000           0.000000           0.000000
H           0.000000           0.000000           1.105491
}

set {
basis              cc-pvtz
reference          uks
maxiter            500
DAMPING_PERCENTAGE 1
E_CONVERGENCE      1.0E-8
D_CONVERGENCE      1.0E-8
DIIS_MAX_VECS      400
MBIS_MAXITER       8000
guess              read
}

E, wfn = energy('b3lyp', restart_file='last_wfn', return_wfn=True)
properties('b3lyp','MBIS_CHARGES', wfn=wfn)
wfn.to_file('last_wfn')
--------------------------------------------------------------------------

    Molecular point group: c2v
  Charge       = -1
  Multiplicity = 3
  Basis Set: CC-PVTZ
    Blend: CC-PVTZ
  Basis Set: (CC-PVTZ AUX)
    Blend: CC-PVTZ-JKFIT
  @DF-UKS Final Energy:   -38.52631371516759
    Total Energy =                        -38.5263137151675892
 Dipole X            :          0.0000000            0.0000000            0.0000000
 Dipole Y            :          0.0000000            0.0000000            0.0000000
 Dipole Z            :         -0.4881072            0.9560683            0.4679611
 Magnitude           :                                                    0.4679611
    Molecular point group: c2v

    Geometry (in Angstrom), charge = -1, multiplicity = 3:

       Center              X                  Y                   Z               Mass
    ------------   -----------------  -----------------  -----------------  -----------------
         C            0.000000000000     0.000000000000    -0.085651636607    12.000000000000
         H            0.000000000000     0.000000000000     1.019839363393     1.007825032230

  Charge       = -1
  Multiplicity = 3
  Basis Set: CC-PVTZ
    Blend: CC-PVTZ
  Basis Set: (CC-PVTZ AUX)
    Blend: CC-PVTZ-JKFIT

    Orbital Energies [Eh]
    ---------------------

    Alpha Occupied:

       1A1    -9.871420     2A1    -0.310084     3A1     0.011634
       1B2     0.088109     1B1     0.088109

    Alpha Virtual:

       4A1     0.295177     5A1     0.541917     2B2     0.575459
       2B1     0.575459     6A1     0.645813     7A1     0.722573
       3B1     0.881458     3B2     0.881458     8A1     0.966265
       1A2     0.966265     9A1     1.252837     4B1     1.325004
       4B2     1.325004    10A1     1.707319     5B2     2.295138
       5B1     2.295138    11A1     2.369299    12A1     2.531552
      13A1     2.870822     2A2     2.870822     6B2     2.973414
       6B1     2.973414     7B1     2.995430     7B2     2.995430
      14A1     3.258184     3A2     3.266571    15A1     3.266571
       8B1     3.405933     8B2     3.405933    16A1     3.590946
      17A1     3.900017     4A2     3.900018     9B1     4.125490
       9B2     4.125490    18A1     4.850437    10B2     5.048908
      10B1     5.048908    19A1     5.103442    20A1     8.537237

    Beta Occupied:

       1A1    -9.848262     2A1    -0.240689     3A1     0.047526

    Beta Virtual:

       1B1     0.244151     1B2     0.244151     4A1     0.301947
       5A1     0.558797     2B2     0.646249     2B1     0.646249
       6A1     0.676235     7A1     0.749539     3B1     0.911047
       3B2     0.911047     1A2     1.042764     8A1     1.042764
       9A1     1.276151     4B1     1.348807     4B2     1.348807
      10A1     1.729996     5B2     2.374724     5B1     2.374724
      11A1     2.386203    12A1     2.563697    13A1     2.919891
       2A2     2.919891     6B1     3.013735     6B2     3.013735
       7B1     3.090956     7B2     3.090956    14A1     3.292664
      15A1     3.383796     3A2     3.383797     8B1     3.452905
       8B2     3.452905    16A1     3.615578    17A1     3.921454
       4A2     3.921455     9B1     4.127715     9B2     4.127715
      18A1     4.864014    10B2     5.073634    10B1     5.073634
      19A1     5.114501    20A1     8.565767

    Final Occupation by Irrep:
             A1    A2    B1    B2
    DOCC [     3,    0,    0,    0 ]
    SOCC [     0,    0,    1,    1 ]
    NA   [     3,    0,    1,    1 ]
    NB   [     3,    0,    0,    0 ]

  @DF-UKS Final Energy:   -38.52631371625476

   => Energetics <=

    Nuclear Repulsion Energy =              2.8720842268458089
    One-Electron Energy =                 -59.3212131541662515
    Two-Electron Energy =                  22.6956318103275976
    DFT Exchange-Correlation Energy =      -4.7728165992619127
    Empirical Dispersion Energy =           0.0000000000000000
    VV10 Nonlocal Energy =                  0.0000000000000000
    Total Energy =                        -38.5263137162547622

  UHF NO Occupations:
  HONO-2 :    3 A1 1.9976616
  HONO-1 :    1 B2 1.0000000
  HONO-0 :    1 B1 1.0000000
  LUNO+0 :    4 A1 0.0023384
  LUNO+1 :    5 A1 0.0003703
  LUNO+2 :    6 A1 0.0000011
  LUNO+3 :    7 A1 0.0000000

Computation Completed

Properties will be evaluated at   0.000000,   0.000000,   0.000000 [a0]

Properties computed using the B3LYP density matrix

 Multipole Moments:

 ------------------------------------------------------------------------------------
     Multipole            Electronic (a.u.)      Nuclear  (a.u.)        Total (a.u.)
 ------------------------------------------------------------------------------------

 L = 1.  Multiply by 2.5417464519 to convert [e a0] to [Debye]
 Dipole X            :          0.0000000            0.0000000            0.0000000
 Dipole Y            :          0.0000000            0.0000000            0.0000000
 Dipole Z            :         -0.4881072            0.9560683            0.4679611
 Magnitude           :                                                    0.4679611

 L = 2.  Multiply by 1.3450342976 to convert [e a0^2] to [Debye ang]
 Quadrupole XX       :         -7.9854246            0.0000000           -7.9854246
 Quadrupole XY       :          0.0000000            0.0000000            0.0000000
 Quadrupole XZ       :          0.0000000            0.0000000            0.0000000
 Quadrupole YY       :         -7.9854246            0.0000000           -7.9854246
 Quadrupole YZ       :          0.0000000            0.0000000            0.0000000
 Quadrupole ZZ       :        -12.4122557            3.8713540           -8.5409017
 Traceless XX        :          1.4756104           -1.2904513            0.1851590
 Traceless YY        :          1.4756104           -1.2904513            0.1851590
 Traceless ZZ        :         -2.9512208            2.5809027           -0.3703181

 ------------------------------------------------------------------------------------
  ==> Computing MBIS Charges <==

  Electron Count from Grid (Expected Number):  8.00000 ( 8.00000)
  Difference: -0.00000

  MBIS Charges: (a.u.)
   Center  Symbol  Z      Pop.       Charge
      1       C    6    7.031518   -1.031518
      2       H    1    0.968482    0.031518

  MBIS Dipoles: [e a0]
   Center  Symbol  Z        X           Y           Z
      1       C    6    0.000000    0.000000    0.235360
      2       H    1    0.000000   -0.000000    0.004899

  MBIS Quadrupoles: [e a0^2]
   Center  Symbol  Z      XX        XY        XZ        YY        YZ        ZZ
      1       C    6   -7.3125   -0.0000   -0.0000   -7.3125    0.0000   -7.8399
      2       H    1   -0.6730    0.0000   -0.0000   -0.6730   -0.0000   -0.7337

  MBIS Octupoles: [e a0^3]
   Center  Symbol  Z      XXX       XXY       XXZ       XYY       XYZ       XZZ       YYY       YYZ       YZZ       ZZZ
      1       C    6   -0.0000   -0.0000    0.3310   -0.0000   -0.0000   -0.0000   -0.0000    0.3310   -0.0000   -0.6292
      2       H    1   -0.0000    0.0000   -0.0392   -0.0000   -0.0000   -0.0000    0.0000   -0.0392   -0.0000   -0.1323

  MBIS Radial Moments:
   Center  Symbol  Z      [a0^2]      [a0^3]      [a0^4]
      1       C    6   22.464835   64.388298   217.241997
      2       H    1    2.079650    4.443318   11.384227

  MBIS Valence Widths: [a0]
   Center  Symbol  Z     Width
      1       C    6    0.598120
      2       H    1    0.421474

*** tstop() called on Mac.lan at Sun Aug 10 17:35:47 2025
Module time:
	user time   =       2.62 seconds =       0.04 minutes
	system time =       2.37 seconds =       0.04 minutes
	total time  =          0 seconds =       0.00 minutes
Total time:
	user time   =      11.51 seconds =       0.19 minutes
	system time =       4.74 seconds =       0.08 minutes
	total time  =          1 seconds =       0.02 minutes

    Psi4 stopped on: Sunday, 10 August 2025 05:35PM
    Psi4 wall time for execution: 0:00:01.58

*** Psi4 exiting successfully. Buy a developer a beer!
