                               Psi4 1.9.1 release

  ==> Input File <==

--------------------------------------------------------------------------
molecule {
-1 2
O           0.000000           0.000000           0.000000
O           0.000000           0.000000           1.330288
}

set {
basis              cc-pvtz
reference          uks
maxiter            500
DAMPING_PERCENTAGE 1
E_CONVERGENCE      1.0E-8
D_CONVERGENCE      1.0E-8
DIIS_MAX_VECS      400
MBIS_MAXITER       8000
guess              read
}

E, wfn = energy('b3lyp', restart_file='last_wfn', return_wfn=True)
properties('b3lyp','MBIS_CHARGES', wfn=wfn)
wfn.to_file('last_wfn')
--------------------------------------------------------------------------

    Molecular point group: d2h
  Charge       = -1
  Multiplicity = 2
  Basis Set: CC-PVTZ
    Blend: CC-PVTZ
  Basis Set: (CC-PVTZ AUX)
    Blend: CC-PVTZ-JKFIT
  @DF-UKS Final Energy:  -150.37754068330707
    Total Energy =                       -150.3775406833070463
 Dipole X            :          0.0000000            0.0000000            0.0000000
 Dipole Y            :          0.0000000            0.0000000            0.0000000
 Dipole Z            :          0.0000000            0.0000000            0.0000000
 Magnitude           :                                                    0.0000000
    Molecular point group: d2h

    Geometry (in Angstrom), charge = -1, multiplicity = 2:

       Center              X                  Y                   Z               Mass
    ------------   -----------------  -----------------  -----------------  -----------------
         O            0.000000000000     0.000000000000    -0.665144000000    15.994914619570
         O            0.000000000000     0.000000000000     0.665144000000    15.994914619570

  Charge       = -1
  Multiplicity = 2
  Basis Set: CC-PVTZ
    Blend: CC-PVTZ
  Basis Set: (CC-PVTZ AUX)
    Blend: CC-PVTZ-JKFIT

    Orbital Energies [Eh]
    ---------------------

    Alpha Occupied:

       1Ag   -18.831480     1B1u  -18.831385     2Ag    -0.786050
       2B1u   -0.444566     1B2u   -0.122121     3Ag    -0.119511
       1B3u   -0.083418     1B3g    0.069442     1B2g    0.111853

    Alpha Virtual:

       3B1u    0.450662     4B1u    0.800336     2B2u    0.837314
       2B3u    0.859984     4Ag     0.881428     2B3g    0.926437
       2B2g    0.947095     5Ag     1.038199     5B1u    1.542860
       3B2u    1.613739     1B1g    1.631876     6Ag     1.632010
       3B3u    1.638386     1Au     1.950159     6B1u    1.950411
       7Ag     2.321756     3B3g    2.441688     3B2g    2.467668
       7B1u    2.530440     4B2u    3.783490     4B3u    3.818241
       8Ag     3.886790     4B3g    4.021680     4B2g    4.059160
       8B1u    4.936818     5B2u    5.011174     5B3u    5.040131
       9Ag     5.077994     2B1g    5.080730    10Ag     5.163503
       6B2u    5.375775     6B3u    5.375818     5B3g    5.506939
       5B2g    5.506954     2Au     5.861084     9B1u    5.861308
       6B3g    6.437004    11Ag     6.446079     3B1g    6.446108
       6B2g    6.469306    10B1u    6.622149     3Au     6.627324
       7B2u    6.643638     7B3u    6.678128    11B1u    6.692385
      12B1u    6.782326    12Ag     7.103928     7B3g    7.314969
       7B2g    7.345599    13Ag     7.941721    13B1u   10.408707

    Beta Occupied:

       1Ag   -18.817240     1B1u  -18.817097     2Ag    -0.755995
       2B1u   -0.401568     3Ag    -0.103142     1B3u   -0.071732
       1B2u   -0.037165     1B2g    0.126653

    Beta Virtual:

       1B3g    0.235571     3B1u    0.468413     4B1u    0.809674
       2B3u    0.865433     2B2u    0.873882     4Ag     0.888033
       2B2g    0.952962     2B3g    0.966443     5Ag     1.048564
       5B1u    1.560393     3B2u    1.638961     3B3u    1.639903
       1B1g    1.653293     6Ag     1.654509     1Au     1.979153
       6B1u    1.980664     7Ag     2.337216     3B2g    2.471376
       3B3g    2.473248     7B1u    2.539913     4B3u    3.828629
       4B2u    3.844647     8Ag     3.896630     4B2g    4.070751
       4B3g    4.085177     8B1u    4.953908     5B2u    5.041437
       5B3u    5.044419     2B1g    5.101880     9Ag     5.103110
      10Ag     5.177647     6B3u    5.410484     6B2u    5.410773
       5B2g    5.542922     5B3g    5.543215     2Au     5.886494
       9B1u    5.887977     6B2g    6.475782     6B3g    6.483133
       3B1g    6.497007    11Ag     6.500573     3Au     6.676436
      10B1u    6.678649     7B3u    6.684938     7B2u    6.695065
      11B1u    6.708772    12B1u    6.797769    12Ag     7.117734
       7B2g    7.349707     7B3g    7.351943    13Ag     7.968906
      13B1u   10.428385

    Final Occupation by Irrep:
             Ag   B1g   B2g   B3g    Au   B1u   B2u   B3u
    DOCC [     3,    0,    1,    0,    0,    2,    1,    1 ]
    SOCC [     0,    0,    0,    1,    0,    0,    0,    0 ]
    NA   [     3,    0,    1,    1,    0,    2,    1,    1 ]
    NB   [     3,    0,    1,    0,    0,    2,    1,    1 ]

  @DF-UKS Final Energy:  -150.37754068336790

   => Energetics <=

    Nuclear Repulsion Energy =             25.4586536771586367
    One-Electron Energy =                -263.6767122781863009
    Two-Electron Energy =                 101.8749924633747952
    DFT Exchange-Correlation Energy =     -14.0344745457150015
    Empirical Dispersion Energy =           0.0000000000000000
    VV10 Nonlocal Energy =                  0.0000000000000000
    Total Energy =                       -150.3775406833678971

  UHF NO Occupations:
  HONO-2 :    2B1u 1.9997145
  HONO-1 :    1B2u 1.9985076
  HONO-0 :    1B3g 1.0000000
  LUNO+0 :    2B2u 0.0014924
  LUNO+1 :    3B1u 0.0002855
  LUNO+2 :    4 Ag 0.0001470
  LUNO+3 :    2B2g 0.0000498

Computation Completed

Properties will be evaluated at   0.000000,   0.000000,   0.000000 [a0]

Properties computed using the B3LYP density matrix

 Multipole Moments:

 ------------------------------------------------------------------------------------
     Multipole            Electronic (a.u.)      Nuclear  (a.u.)        Total (a.u.)
 ------------------------------------------------------------------------------------

 L = 1.  Multiply by 2.5417464519 to convert [e a0] to [Debye]
 Dipole X            :          0.0000000            0.0000000            0.0000000
 Dipole Y            :          0.0000000            0.0000000            0.0000000
 Dipole Z            :          0.0000000            0.0000000            0.0000000
 Magnitude           :                                                    0.0000000

 L = 2.  Multiply by 1.3450342976 to convert [e a0^2] to [Debye ang]
 Quadrupole XX       :         -9.6266749            0.0000000           -9.6266749
 Quadrupole XY       :          0.0000000            0.0000000            0.0000000
 Quadrupole XZ       :          0.0000000            0.0000000            0.0000000
 Quadrupole YY       :         -8.8193914            0.0000000           -8.8193914
 Quadrupole YZ       :          0.0000000            0.0000000            0.0000000
 Quadrupole ZZ       :        -36.5914069           25.2783704          -11.3130365
 Traceless XX        :          8.7191495           -8.4261235            0.2930261
 Traceless YY        :          9.5264330           -8.4261235            1.1003095
 Traceless ZZ        :        -18.2455825           16.8522469           -1.3933356

 ------------------------------------------------------------------------------------
  ==> Computing MBIS Charges <==

  Electron Count from Grid (Expected Number): 17.00000 (17.00000)
  Difference: -0.00000

  MBIS Charges: (a.u.)
   Center  Symbol  Z      Pop.       Charge
      1       O    8    8.500000   -0.500000
      2       O    8    8.500000   -0.500000

  MBIS Dipoles: [e a0]
   Center  Symbol  Z        X           Y           Z
      1       O    8   -0.000000   -0.000000    0.205787
      2       O    8   -0.000000   -0.000000   -0.205787

  MBIS Quadrupoles: [e a0^2]
   Center  Symbol  Z      XX        XY        XZ        YY        YZ        ZZ
      1       O    8   -4.8133   -0.0000   -0.0000   -4.4097    0.0000   -4.3492
      2       O    8   -4.8133   -0.0000    0.0000   -4.4097   -0.0000   -4.3492

  MBIS Octupoles: [e a0^3]
   Center  Symbol  Z      XXX       XXY       XXZ       XYY       XYZ       XZZ       YYY       YYZ       YZZ       ZZZ
      1       O    8   -0.0000   -0.0000    0.3221   -0.0000   -0.0000   -0.0000   -0.0000    0.1800   -0.0000   -0.0960
      2       O    8   -0.0000   -0.0000   -0.3221   -0.0000    0.0000   -0.0000    0.0000   -0.1800   -0.0000    0.0960

  MBIS Radial Moments:
   Center  Symbol  Z      [a0^2]      [a0^3]      [a0^4]
      1       O    8   13.572278   27.202856   65.086606
      2       O    8   13.572278   27.202856   65.086606

  MBIS Valence Widths: [a0]
   Center  Symbol  Z     Width
      1       O    8    0.407220
      2       O    8    0.407220

*** tstop() called on Mac.lan at Sun Aug 10 17:28:17 2025
Module time:
	user time   =       3.74 seconds =       0.06 minutes
	system time =       1.99 seconds =       0.03 minutes
	total time  =          1 seconds =       0.02 minutes
Total time:
	user time   =      15.65 seconds =       0.26 minutes
	system time =       3.93 seconds =       0.07 minutes
	total time  =          2 seconds =       0.03 minutes

    Psi4 stopped on: Sunday, 10 August 2025 05:28PM
    Psi4 wall time for execution: 0:00:01.91

*** Psi4 exiting successfully. Buy a developer a beer!
