                               Psi4 1.9.1 release

  ==> Input File <==

--------------------------------------------------------------------------
molecule {
-1 1
O           0.000000           0.000000           0.000000
H           0.000000           0.000000           0.362662
}

set {
basis              cc-pvtz
reference          uks
maxiter            500
DAMPING_PERCENTAGE 1
E_CONVERGENCE      1.0E-8
D_CONVERGENCE      1.0E-8
DIIS_MAX_VECS      400
MBIS_MAXITER       8000
guess              read
}

E, wfn = energy('b3lyp', restart_file='last_wfn', return_wfn=True)
properties('b3lyp','MBIS_CHARGES', wfn=wfn)
wfn.to_file('last_wfn')
--------------------------------------------------------------------------

    Molecular point group: c2v
  Charge       = -1
  Multiplicity = 1
  Basis Set: CC-PVTZ
    Blend: CC-PVTZ
  Basis Set: (CC-PVTZ AUX)
    Blend: CC-PVTZ-JKFIT
  @DF-UKS Final Energy:   -73.54604731000160
    Total Energy =                        -73.5460473100015975
 Dipole X            :          0.0000000            0.0000000            0.0000000
 Dipole Y            :          0.0000000            0.0000000            0.0000000
 Dipole Z            :          0.2919528            0.3197289            0.6116817
 Magnitude           :                                                    0.6116817
    Molecular point group: c2v

    Geometry (in Angstrom), charge = -1, multiplicity = 1:

       Center              X                  Y                   Z               Mass
    ------------   -----------------  -----------------  -----------------  -----------------
         O            0.000000000000     0.000000000000    -0.021496526402    15.994914619570
         H            0.000000000000     0.000000000000     0.341165473598     1.007825032230

  Charge       = -1
  Multiplicity = 1
  Basis Set: CC-PVTZ
    Blend: CC-PVTZ
  Basis Set: (CC-PVTZ AUX)
    Blend: CC-PVTZ-JKFIT

    Orbital Energies [Eh]
    ---------------------

    Alpha Occupied:

       1A1   -18.696072     2A1    -0.756700     3A1    -0.068665
       1B1     0.102107     1B2     0.102107

    Alpha Virtual:

       4A1     0.339945     5A1     0.744448     2B1     0.823197
       2B2     0.823197     6A1     1.097442     7A1     1.239343
       3B2     1.304006     3B1     1.304006     1A2     1.856289
       8A1     1.856289     9A1     2.210117     4B1     2.339505
       4B2     2.339505    10A1     2.929539     5B2     3.645050
       5B1     3.645050    11A1     3.675068     2A2     3.969127
      12A1     3.969127     6B2     4.107984     6B1     4.107984
      13A1     4.356595    14A1     5.393187     7B2     5.592187
       7B1     5.592187     8B2     6.118774     8B1     6.118774
       3A2     6.239581    15A1     6.239581    16A1     6.766665
       9B2     6.974524     9B1     6.974524     4A2     7.671294
      17A1     7.671294    18A1     8.589766    10B2     9.754702
      10B1     9.754702    19A1    13.492666    20A1    20.433403

    Beta Occupied:

       1A1   -18.696072     2A1    -0.756700     3A1    -0.068665
       1B1     0.102107     1B2     0.102107

    Beta Virtual:

       4A1     0.339945     5A1     0.744448     2B1     0.823197
       2B2     0.823197     6A1     1.097442     7A1     1.239343
       3B2     1.304006     3B1     1.304006     1A2     1.856289
       8A1     1.856289     9A1     2.210117     4B1     2.339505
       4B2     2.339505    10A1     2.929539     5B2     3.645050
       5B1     3.645050    11A1     3.675068     2A2     3.969127
      12A1     3.969127     6B2     4.107984     6B1     4.107984
      13A1     4.356595    14A1     5.393187     7B2     5.592187
       7B1     5.592187     8B2     6.118774     8B1     6.118774
       3A2     6.239581    15A1     6.239581    16A1     6.766665
       9B2     6.974524     9B1     6.974524     4A2     7.671294
      17A1     7.671294    18A1     8.589766    10B2     9.754702
      10B1     9.754702    19A1    13.492666    20A1    20.433403

    Final Occupation by Irrep:
             A1    A2    B1    B2
    DOCC [     3,    0,    1,    1 ]
    SOCC [     0,    0,    0,    0 ]
    NA   [     3,    0,    1,    1 ]
    NB   [     3,    0,    1,    1 ]

  @DF-UKS Final Energy:   -73.54604730944499

   => Energetics <=

    Nuclear Repulsion Energy =             11.6731769122764462
    One-Electron Energy =                -126.1171277974854945
    Two-Electron Energy =                  48.8275636157900976
    DFT Exchange-Correlation Energy =      -7.9296600400260333
    Empirical Dispersion Energy =           0.0000000000000000
    VV10 Nonlocal Energy =                  0.0000000000000000
    Total Energy =                        -73.5460473094449867

  UHF NO Occupations:
  HONO-2 :    1 B2 2.0000000
  HONO-1 :    1 B1 2.0000000
  HONO-0 :    3 A1 2.0000000
  LUNO+0 :    4 A1 0.0000000
  LUNO+1 :    5 A1 0.0000000
  LUNO+2 :    6 A1 0.0000000
  LUNO+3 :    7 A1 0.0000000

Computation Completed

Properties will be evaluated at   0.000000,   0.000000,   0.000000 [a0]

Properties computed using the B3LYP density matrix

 Multipole Moments:

 ------------------------------------------------------------------------------------
     Multipole            Electronic (a.u.)      Nuclear  (a.u.)        Total (a.u.)
 ------------------------------------------------------------------------------------

 L = 1.  Multiply by 2.5417464519 to convert [e a0] to [Debye]
 Dipole X            :          0.0000000            0.0000000            0.0000000
 Dipole Y            :          0.0000000            0.0000000            0.0000000
 Dipole Z            :          0.2919528            0.3197289            0.6116817
 Magnitude           :                                                    0.6116817

 L = 2.  Multiply by 1.3450342976 to convert [e a0^2] to [Debye ang]
 Quadrupole XX       :         -5.8252208            0.0000000           -5.8252208
 Quadrupole XY       :          0.0000000            0.0000000            0.0000000
 Quadrupole XZ       :          0.0000000            0.0000000            0.0000000
 Quadrupole YY       :         -5.8252208            0.0000000           -5.8252208
 Quadrupole YZ       :          0.0000000            0.0000000            0.0000000
 Quadrupole ZZ       :         -5.2781209            0.4288516           -4.8492693
 Traceless XX        :         -0.1823666           -0.1429505           -0.3253172
 Traceless YY        :         -0.1823666           -0.1429505           -0.3253172
 Traceless ZZ        :          0.3647333            0.2859011            0.6506344

 ------------------------------------------------------------------------------------
  ==> Computing MBIS Charges <==

  Electron Count from Grid (Expected Number): 10.00000 (10.00000)
  Difference: -0.00000

  MBIS Charges: (a.u.)
   Center  Symbol  Z      Pop.       Charge
      1       O    8    9.381878   -1.381878
      2       H    1    0.618122    0.381878

  MBIS Dipoles: [e a0]
   Center  Symbol  Z        X           Y           Z
      1       O    8   -0.000000   -0.000000    0.298291
      2       H    1    0.000000    0.000000    0.011055

  MBIS Quadrupoles: [e a0^2]
   Center  Symbol  Z      XX        XY        XZ        YY        YZ        ZZ
      1       O    8   -5.7387    0.0000   -0.0000   -5.7387   -0.0000   -4.9163
      2       H    1   -0.0865   -0.0000    0.0000   -0.0865    0.0000   -0.0794

  MBIS Octupoles: [e a0^3]
   Center  Symbol  Z      XXX       XXY       XXZ       XYY       XYZ       XZZ       YYY       YYZ       YZZ       ZZZ
      1       O    8   -0.0000   -0.0000    0.5080   -0.0000   -0.0000    0.0000   -0.0000    0.5080    0.0000    1.3640
      2       H    1   -0.0000   -0.0000    0.0028   -0.0000    0.0000   -0.0000    0.0000    0.0028    0.0000    0.0069

  MBIS Radial Moments:
   Center  Symbol  Z      [a0^2]      [a0^3]      [a0^4]
      1       O    8   16.393778   34.501436   86.662399
      2       H    1    0.252400    0.228631    0.249083

  MBIS Valence Widths: [a0]
   Center  Symbol  Z     Width
      1       O    8    0.419828
      2       H    1    0.186552

*** tstop() called on Mac.lan at Sun Aug 10 17:37:44 2025
Module time:
	user time   =       3.52 seconds =       0.06 minutes
	system time =       2.96 seconds =       0.05 minutes
	total time  =          0 seconds =       0.00 minutes
Total time:
	user time   =      12.81 seconds =       0.21 minutes
	system time =       5.31 seconds =       0.09 minutes
	total time  =          2 seconds =       0.03 minutes

    Psi4 stopped on: Sunday, 10 August 2025 05:37PM
    Psi4 wall time for execution: 0:00:01.79

*** Psi4 exiting successfully. Buy a developer a beer!
