                               Psi4 1.9.1 release

  ==> Input File <==

--------------------------------------------------------------------------
molecule {
-1 2
O           0.000000           0.000000           0.000000
O           0.000000           0.000000           1.742898
}

set {
basis              cc-pvtz
reference          uks
maxiter            500
DAMPING_PERCENTAGE 1
E_CONVERGENCE      1.0E-8
D_CONVERGENCE      1.0E-8
DIIS_MAX_VECS      400
MBIS_MAXITER       8000
guess              read
}

E, wfn = energy('b3lyp', restart_file='last_wfn', return_wfn=True)
properties('b3lyp','MBIS_CHARGES', wfn=wfn)
wfn.to_file('last_wfn')
--------------------------------------------------------------------------

    Molecular point group: d2h
  Charge       = -1
  Multiplicity = 2
  Basis Set: CC-PVTZ
    Blend: CC-PVTZ
  Basis Set: (CC-PVTZ AUX)
    Blend: CC-PVTZ-JKFIT
  @DF-UKS Final Energy:  -150.32089492885089
    Total Energy =                       -150.3208949288508904
 Dipole X            :          0.0000000            0.0000000            0.0000000
 Dipole Y            :          0.0000000            0.0000000            0.0000000
 Dipole Z            :          0.0000000            0.0000000            0.0000000
 Magnitude           :                                                    0.0000000
    Molecular point group: d2h

    Geometry (in Angstrom), charge = -1, multiplicity = 2:

       Center              X                  Y                   Z               Mass
    ------------   -----------------  -----------------  -----------------  -----------------
         O            0.000000000000     0.000000000000    -0.871449000000    15.994914619570
         O            0.000000000000     0.000000000000     0.871449000000    15.994914619570

  Charge       = -1
  Multiplicity = 2
  Basis Set: CC-PVTZ
    Blend: CC-PVTZ
  Basis Set: (CC-PVTZ AUX)
    Blend: CC-PVTZ-JKFIT

    Orbital Energies [Eh]
    ---------------------

    Alpha Occupied:

       1Ag   -18.874528     1B1u  -18.874503     2Ag    -0.662059
       2B1u   -0.543530     3Ag    -0.083015     1B2u   -0.082405
       1B3u   -0.044342     1B3g   -0.009949     1B2g    0.031445

    Alpha Virtual:

       3B1u    0.208426     4B1u    0.791524     2B2u    0.817059
       2B3u    0.840024     4Ag     0.906223     2B3g    0.908642
       2B2g    0.928854     5Ag     1.054372     5B1u    1.412058
       3B2u    1.557943     3B3u    1.578920     6Ag     1.708423
       1B1g    1.710746     7Ag     1.765059     1Au     1.829131
       6B1u    1.829425     3B3g    2.119114     3B2g    2.143548
       7B1u    2.623233     8Ag     3.768645     4B2u    3.825311
       4B3u    3.860073     4B3g    3.905362     4B2g    3.940931
       8B1u    4.174509     5B2u    5.200878     9Ag     5.214565
       5B3u    5.229128     2B1g    5.361564    10Ag     5.364035
       6B2u    5.423985     6B3u    5.424063     5B3g    5.432156
       5B2g    5.432211     9B1u    5.470426     2Au     5.470803
       6B3g    5.627890     6B2g    5.655831    10B1u    5.857485
       7B2u    6.380147     7B3u    6.413861    11Ag     6.429338
       3B1g    6.430661    11B1u    6.515526     3Au     6.515548
      12Ag     6.604166     7B3g    6.804494     7B2g    6.837512
      12B1u    7.383216    13Ag     7.488695    13B1u    8.249068

    Beta Occupied:

       1Ag   -18.860615     1B1u  -18.860572     2Ag    -0.626540
       2B1u   -0.500788     3Ag    -0.070260     1B3u   -0.032367
       1B2u    0.010105     1B2g    0.045563

    Beta Virtual:

       1B3g    0.148901     3B1u    0.225000     4B1u    0.798945
       2B3u    0.845921     2B2u    0.858199     4Ag     0.915028
       2B2g    0.934302     2B3g    0.945753     5Ag     1.064969
       5B1u    1.427826     3B2u    1.579799     3B3u    1.580526
       1B1g    1.734897     6Ag     1.735996     7Ag     1.774866
       1Au     1.856381     6B1u    1.857766     3B2g    2.146934
       3B3g    2.149068     7B1u    2.635746     8Ag     3.777772
       4B3u    3.870740     4B2u    3.886420     4B2g    3.951994
       4B3g    3.967592     8B1u    4.188301     5B2u    5.233347
       5B3u    5.233585     9Ag     5.234030     2B1g    5.385158
      10Ag     5.386520     6B3u    5.458901     6B2u    5.459175
       5B2g    5.467956     5B3g    5.468235     2Au     5.494845
       9B1u    5.496231     6B2g    5.659827     6B3g    5.660772
      10B1u    5.872647     7B3u    6.421172     7B2u    6.433620
       3B1g    6.480857    11Ag     6.484188     3Au     6.565387
      11B1u    6.568804    12Ag     6.617693     7B2g    6.844078
       7B3g    6.855028    12B1u    7.394532    13Ag     7.518329
      13B1u    8.277970

    Final Occupation by Irrep:
             Ag   B1g   B2g   B3g    Au   B1u   B2u   B3u
    DOCC [     3,    0,    1,    0,    0,    2,    1,    1 ]
    SOCC [     0,    0,    0,    1,    0,    0,    0,    0 ]
    NA   [     3,    0,    1,    1,    0,    2,    1,    1 ]
    NB   [     3,    0,    1,    0,    0,    2,    1,    1 ]

  @DF-UKS Final Energy:  -150.32089492854180

   => Energetics <=

    Nuclear Repulsion Energy =             19.4316256504281917
    One-Electron Energy =                -251.4727284524814763
    Two-Electron Energy =                  95.6211096768812325
    DFT Exchange-Correlation Energy =     -13.9009018033697487
    Empirical Dispersion Energy =           0.0000000000000000
    VV10 Nonlocal Energy =                  0.0000000000000000
    Total Energy =                       -150.3208949285417759

  UHF NO Occupations:
  HONO-2 :    2B1u 1.9997877
  HONO-1 :    1B2u 1.9979185
  HONO-0 :    1B3g 1.0000000
  LUNO+0 :    2B2u 0.0020815
  LUNO+1 :    3B1u 0.0002123
  LUNO+2 :    4 Ag 0.0001570
  LUNO+3 :    2B3u 0.0000556

Computation Completed

Properties will be evaluated at   0.000000,   0.000000,   0.000000 [a0]

Properties computed using the B3LYP density matrix

 Multipole Moments:

 ------------------------------------------------------------------------------------
     Multipole            Electronic (a.u.)      Nuclear  (a.u.)        Total (a.u.)
 ------------------------------------------------------------------------------------

 L = 1.  Multiply by 2.5417464519 to convert [e a0] to [Debye]
 Dipole X            :          0.0000000            0.0000000            0.0000000
 Dipole Y            :          0.0000000            0.0000000            0.0000000
 Dipole Z            :          0.0000000            0.0000000            0.0000000
 Magnitude           :                                                    0.0000000

 L = 2.  Multiply by 1.3450342976 to convert [e a0^2] to [Debye ang]
 Quadrupole XX       :         -9.9071348            0.0000000           -9.9071348
 Quadrupole XY       :          0.0000000            0.0000000            0.0000000
 Quadrupole XZ       :          0.0000000            0.0000000            0.0000000
 Quadrupole YY       :         -9.1108010            0.0000000           -9.1108010
 Quadrupole YZ       :          0.0000000            0.0000000            0.0000000
 Quadrupole ZZ       :        -55.0466633           43.3912008          -11.6554625
 Traceless XX        :         14.7810649          -14.4637336            0.3173313
 Traceless YY        :         15.5773987          -14.4637336            1.1136651
 Traceless ZZ        :        -30.3584636           28.9274672           -1.4309964

 ------------------------------------------------------------------------------------
  ==> Computing MBIS Charges <==

  Electron Count from Grid (Expected Number): 17.00000 (17.00000)
  Difference: -0.00000

  MBIS Charges: (a.u.)
   Center  Symbol  Z      Pop.       Charge
      1       O    8    8.500000   -0.500000
      2       O    8    8.500000   -0.500000

  MBIS Dipoles: [e a0]
   Center  Symbol  Z        X           Y           Z
      1       O    8   -0.000000   -0.000000    0.059800
      2       O    8   -0.000000   -0.000000   -0.059800

  MBIS Quadrupoles: [e a0^2]
   Center  Symbol  Z      XX        XY        XZ        YY        YZ        ZZ
      1       O    8   -4.9536    0.0000    0.0000   -4.5554   -0.0000   -4.2748
      2       O    8   -4.9536    0.0000   -0.0000   -4.5554    0.0000   -4.2748

  MBIS Octupoles: [e a0^3]
   Center  Symbol  Z      XXX       XXY       XXZ       XYY       XYZ       XZZ       YYY       YYZ       YZZ       ZZZ
      1       O    8   -0.0000   -0.0000    0.0605   -0.0000   -0.0000   -0.0000    0.0000   -0.0371    0.0000   -0.3346
      2       O    8   -0.0000    0.0000   -0.0605   -0.0000    0.0000   -0.0000   -0.0000    0.0371   -0.0000    0.3346

  MBIS Radial Moments:
   Center  Symbol  Z      [a0^2]      [a0^3]      [a0^4]
      1       O    8   13.783764   27.822014   66.934256
      2       O    8   13.783764   27.822014   66.934256

  MBIS Valence Widths: [a0]
   Center  Symbol  Z     Width
      1       O    8    0.410693
      2       O    8    0.410693

*** tstop() called on Mac.lan at Sun Aug 10 17:28:48 2025
Module time:
	user time   =       3.76 seconds =       0.06 minutes
	system time =       2.01 seconds =       0.03 minutes
	total time  =          0 seconds =       0.00 minutes
Total time:
	user time   =      15.51 seconds =       0.26 minutes
	system time =       4.09 seconds =       0.07 minutes
	total time  =          2 seconds =       0.03 minutes

    Psi4 stopped on: Sunday, 10 August 2025 05:28PM
    Psi4 wall time for execution: 0:00:01.91

*** Psi4 exiting successfully. Buy a developer a beer!
