                               Psi4 1.9.1 release

  ==> Input File <==

--------------------------------------------------------------------------
molecule {
-1 2
H           0.000000           0.000000           0.000000
H           0.000000           0.000000           0.926206
}

set {
basis              cc-pvtz
reference          uks
maxiter            500
DAMPING_PERCENTAGE 1
E_CONVERGENCE      1.0E-8
D_CONVERGENCE      1.0E-8
DIIS_MAX_VECS      400
MBIS_MAXITER       8000
guess              read
}

E, wfn = energy('b3lyp', restart_file='last_wfn', return_wfn=True)
properties('b3lyp','MBIS_CHARGES', wfn=wfn)
wfn.to_file('last_wfn')
--------------------------------------------------------------------------

    Molecular point group: d2h
  Charge       = -1
  Multiplicity = 2
  Basis Set: CC-PVTZ
    Blend: CC-PVTZ
  Basis Set: (CC-PVTZ AUX)
    Blend: CC-PVTZ-JKFIT
  @DF-UKS Final Energy:    -1.05607218971508
    Total Energy =                         -1.0560721897150773
 Dipole X            :          0.0000000            0.0000000            0.0000000
 Dipole Y            :          0.0000000            0.0000000            0.0000000
 Dipole Z            :          0.0000000            0.0000000            0.0000000
 Magnitude           :                                                    0.0000000
    Molecular point group: d2h

    Geometry (in Angstrom), charge = -1, multiplicity = 2:

       Center              X                  Y                   Z               Mass
    ------------   -----------------  -----------------  -----------------  -----------------
         H            0.000000000000     0.000000000000    -0.463103000000     1.007825032230
         H            0.000000000000     0.000000000000     0.463103000000     1.007825032230

  Charge       = -1
  Multiplicity = 2
  Basis Set: CC-PVTZ
    Blend: CC-PVTZ
  Basis Set: (CC-PVTZ AUX)
    Blend: CC-PVTZ-JKFIT

    Orbital Energies [Eh]
    ---------------------

    Alpha Occupied:

       1Ag    -0.103057     1B1u    0.200612

    Alpha Virtual:

       2Ag     0.442880     2B1u    0.651141     1B3u    0.794657
       1B2u    0.794657     3Ag     1.126971     1B2g    1.171842
       1B3g    1.171842     3B1u    1.583088     4Ag     2.479344
       4B1u    2.487820     1B1g    3.218586     5Ag     3.218586
       2B3u    3.292140     2B2u    3.292140     6Ag     3.523939
       1Au     3.919809     5B1u    3.919809     3B3u    3.980379
       3B2u    3.980379     2B2g    3.993123     2B3g    3.993123
       6B1u    4.196084     3B2g    5.114132     3B3g    5.114132
       7Ag     5.154401     7B1u    6.308766

    Beta Occupied:

       1Ag    -0.075733

    Beta Virtual:

       1B1u    0.295962     2Ag     0.460622     2B1u    0.694435
       1B3u    0.805667     1B2u    0.805667     3Ag     1.168801
       1B2g    1.205464     1B3g    1.205464     3B1u    1.621193
       4Ag     2.496254     4B1u    2.521435     1B1g    3.230780
       5Ag     3.230780     2B3u    3.298913     2B2u    3.298913
       6Ag     3.556062     1Au     3.941374     5B1u    3.941374
       3B3u    4.012920     3B2u    4.012920     2B2g    4.028562
       2B3g    4.028562     6B1u    4.236983     3B2g    5.136086
       3B3g    5.136086     7Ag     5.184198     7B1u    6.330039

    Final Occupation by Irrep:
             Ag   B1g   B2g   B3g    Au   B1u   B2u   B3u
    DOCC [     1,    0,    0,    0,    0,    0,    0,    0 ]
    SOCC [     0,    0,    0,    0,    0,    1,    0,    0 ]
    NA   [     1,    0,    0,    0,    0,    1,    0,    0 ]
    NB   [     1,    0,    0,    0,    0,    0,    0,    0 ]

  @DF-UKS Final Energy:    -1.05607218927953

   => Energetics <=

    Nuclear Repulsion Energy =              0.5713385690332389
    One-Electron Energy =                  -2.7700470435535114
    Two-Electron Energy =                   1.8425777446574885
    DFT Exchange-Correlation Energy =      -0.6999414594167407
    Empirical Dispersion Energy =           0.0000000000000000
    VV10 Nonlocal Energy =                  0.0000000000000000
    Total Energy =                         -1.0560721892795248

  UHF NO Occupations:
  HONO-1 :    1 Ag 1.9995904
  HONO-0 :    1B1u 1.0000000
  LUNO+0 :    2 Ag 0.0004096
  LUNO+1 :    2B1u 0.0000000
  LUNO+2 :    3 Ag 0.0000000
  LUNO+3 :    3B1u 0.0000000

Computation Completed

Properties will be evaluated at   0.000000,   0.000000,   0.000000 [a0]

Properties computed using the B3LYP density matrix

 Multipole Moments:

 ------------------------------------------------------------------------------------
     Multipole            Electronic (a.u.)      Nuclear  (a.u.)        Total (a.u.)
 ------------------------------------------------------------------------------------

 L = 1.  Multiply by 2.5417464519 to convert [e a0] to [Debye]
 Dipole X            :          0.0000000            0.0000000            0.0000000
 Dipole Y            :          0.0000000            0.0000000            0.0000000
 Dipole Z            :          0.0000000            0.0000000            0.0000000
 Magnitude           :                                                    0.0000000

 L = 2.  Multiply by 1.3450342976 to convert [e a0^2] to [Debye ang]
 Quadrupole XX       :         -4.2502057            0.0000000           -4.2502057
 Quadrupole XY       :          0.0000000            0.0000000            0.0000000
 Quadrupole XZ       :          0.0000000            0.0000000            0.0000000
 Quadrupole YY       :         -4.2502057            0.0000000           -4.2502057
 Quadrupole YZ       :          0.0000000            0.0000000            0.0000000
 Quadrupole ZZ       :         -9.9596439            1.5317325           -8.4279114
 Traceless XX        :          1.9031461           -0.5105775            1.3925686
 Traceless YY        :          1.9031461           -0.5105775            1.3925686
 Traceless ZZ        :         -3.8062921            1.0211550           -2.7851372

 ------------------------------------------------------------------------------------
  ==> Computing MBIS Charges <==

  Electron Count from Grid (Expected Number):  3.00000 ( 3.00000)
  Difference:  0.00000

  MBIS Charges: (a.u.)
   Center  Symbol  Z      Pop.       Charge
      1       H    1    1.500000   -0.500000
      2       H    1    1.500000   -0.500000

  MBIS Dipoles: [e a0]
   Center  Symbol  Z        X           Y           Z
      1       H    1    0.000000   -0.000000    0.304847
      2       H    1    0.000000    0.000000   -0.304847

  MBIS Quadrupoles: [e a0^2]
   Center  Symbol  Z      XX        XY        XZ        YY        YZ        ZZ
      1       H    1   -2.1251    0.0000   -0.0000   -2.1251    0.0000   -3.2975
      2       H    1   -2.1251    0.0000    0.0000   -2.1251    0.0000   -3.2975

  MBIS Octupoles: [e a0^3]
   Center  Symbol  Z      XXX       XXY       XXZ       XYY       XYZ       XZZ       YYY       YYZ       YZZ       ZZZ
      1       H    1    0.0000    0.0000    0.8144    0.0000   -0.0000   -0.0000    0.0000    0.8144   -0.0000    1.6020
      2       H    1   -0.0000   -0.0000   -0.8144    0.0000    0.0000    0.0000    0.0000   -0.8144    0.0000   -1.6020

  MBIS Radial Moments:
   Center  Symbol  Z      [a0^2]      [a0^3]      [a0^4]
      1       H    1    7.547661   24.448828   91.828496
      2       H    1    7.547661   24.448828   91.828496

  MBIS Valence Widths: [a0]
   Center  Symbol  Z     Width
      1       H    1    0.639286
      2       H    1    0.639286

*** tstop() called on Mac.lan at Sun Aug 10 17:25:44 2025
Module time:
	user time   =       0.45 seconds =       0.01 minutes
	system time =       1.31 seconds =       0.02 minutes
	total time  =          0 seconds =       0.00 minutes
Total time:
	user time   =       2.44 seconds =       0.04 minutes
	system time =       2.58 seconds =       0.04 minutes
	total time  =          0 seconds =       0.00 minutes

    Psi4 stopped on: Sunday, 10 August 2025 05:25PM
    Psi4 wall time for execution: 0:00:00.82

*** Psi4 exiting successfully. Buy a developer a beer!
