                               Psi4 1.9.1 release

  ==> Input File <==

--------------------------------------------------------------------------
molecule {
-1 2
O           0.000000           0.000000           0.000000
O           0.000000           0.000000           1.488985
}

set {
basis              cc-pvtz
reference          uks
maxiter            500
DAMPING_PERCENTAGE 1
E_CONVERGENCE      1.0E-8
D_CONVERGENCE      1.0E-8
DIIS_MAX_VECS      400
MBIS_MAXITER       8000
guess              read
}

E, wfn = energy('b3lyp', restart_file='last_wfn', return_wfn=True)
properties('b3lyp','MBIS_CHARGES', wfn=wfn)
wfn.to_file('last_wfn')
--------------------------------------------------------------------------

    Molecular point group: d2h
  Charge       = -1
  Multiplicity = 2
  Basis Set: CC-PVTZ
    Blend: CC-PVTZ
  Basis Set: (CC-PVTZ AUX)
    Blend: CC-PVTZ-JKFIT
  @DF-UKS Final Energy:  -150.36716110517401
    Total Energy =                       -150.3671611051740058
 Dipole X            :          0.0000000            0.0000000            0.0000000
 Dipole Y            :          0.0000000            0.0000000            0.0000000
 Dipole Z            :          0.0000000            0.0000000            0.0000000
 Magnitude           :                                                    0.0000000
    Molecular point group: d2h

    Geometry (in Angstrom), charge = -1, multiplicity = 2:

       Center              X                  Y                   Z               Mass
    ------------   -----------------  -----------------  -----------------  -----------------
         O            0.000000000000     0.000000000000    -0.744492500000    15.994914619570
         O            0.000000000000     0.000000000000     0.744492500000    15.994914619570

  Charge       = -1
  Multiplicity = 2
  Basis Set: CC-PVTZ
    Blend: CC-PVTZ
  Basis Set: (CC-PVTZ AUX)
    Blend: CC-PVTZ-JKFIT

    Orbital Energies [Eh]
    ---------------------

    Alpha Occupied:

       1Ag   -18.851091     1B1u  -18.851045     2Ag    -0.718572
       2B1u   -0.489660     3Ag    -0.104863     1B2u   -0.099389
       1B3u   -0.061024     1B3g    0.031513     1B2g    0.073676

    Alpha Virtual:

       3B1u    0.333254     4B1u    0.784715     2B2u    0.834511
       2B3u    0.857627     4Ag     0.893499     2B3g    0.919036
       2B2g    0.939436     5Ag     1.049443     5B1u    1.494080
       3B2u    1.565431     3B3u    1.588078     6Ag     1.666965
       1B1g    1.666994     1Au     1.895230     6B1u    1.895538
       7Ag     2.087488     3B3g    2.314937     3B2g    2.340479
       7B1u    2.600118     8Ag     3.769652     4B2u    3.787950
       4B3u    3.822392     4B3g    3.963005     4B2g    3.999811
       8B1u    4.618336     5B2u    5.038278     5B3u    5.067308
       9Ag     5.132940     2B1g    5.220732    10Ag     5.224319
       6B2u    5.411765     6B3u    5.411807     5B3g    5.463934
       5B2g    5.463952     2Au     5.644695     9B1u    5.644795
       6B3g    6.054608     6B2g    6.084466    10B1u    6.353621
      11Ag     6.434603     3B1g    6.434811     7B2u    6.508047
       7B3u    6.542258     3Au     6.577581    11B1u    6.577955
      12Ag     6.881114     7B3g    7.089371     7B2g    7.121497
      12B1u    7.479407    13Ag     7.763572    13B1u    8.829897

    Beta Occupied:

       1Ag   -18.836931     1B1u  -18.836851     2Ag    -0.685819
       2B1u   -0.446439     3Ag    -0.090349     1B3u   -0.049232
       1B2u   -0.011306     1B2g    0.088243

    Beta Virtual:

       1B3g    0.195225     3B1u    0.351145     4B1u    0.792366
       2B3u    0.863415     2B2u    0.874091     4Ag     0.901108
       2B2g    0.945059     2B3g    0.957453     5Ag     1.059479
       5B1u    1.510938     3B2u    1.587973     3B3u    1.589386
       1B1g    1.689651     6Ag     1.690895     1Au     1.923437
       6B1u    1.924894     7Ag     2.102043     3B2g    2.344046
       3B3g    2.345818     7B1u    2.610668     8Ag     3.778638
       4B3u    3.832754     4B2u    3.848686     4B2g    4.011265
       4B3g    4.026508     8B1u    4.634583     5B2u    5.070084
       5B3u    5.071726     9Ag     5.153964     2B1g    5.243325
      10Ag     5.244649     6B3u    5.446892     6B2u    5.447180
       5B2g    5.499817     5B3g    5.500107     2Au     5.669133
       9B1u    5.670559     6B2g    6.089670     6B3g    6.093141
      10B1u    6.369475     3B1g    6.485621    11Ag     6.489182
       7B3u    6.549392     7B2u    6.560941     3Au     6.627521
      11B1u    6.631051    12Ag     6.893163     7B2g    7.126891
       7B3g    7.134067    12B1u    7.499121    13Ag     7.793808
      13B1u    8.849682

    Final Occupation by Irrep:
             Ag   B1g   B2g   B3g    Au   B1u   B2u   B3u
    DOCC [     3,    0,    1,    0,    0,    2,    1,    1 ]
    SOCC [     0,    0,    0,    1,    0,    0,    0,    0 ]
    NA   [     3,    0,    1,    1,    0,    2,    1,    1 ]
    NB   [     3,    0,    1,    0,    0,    2,    1,    1 ]

  @DF-UKS Final Energy:  -150.36716110492981

   => Energetics <=

    Nuclear Repulsion Energy =             22.7452536344422533
    One-Electron Energy =                -258.2489505448714908
    Two-Electron Energy =                  99.1033349688245266
    DFT Exchange-Correlation Energy =     -13.9667991633250992
    Empirical Dispersion Energy =           0.0000000000000000
    VV10 Nonlocal Energy =                  0.0000000000000000
    Total Energy =                       -150.3671611049298065

  UHF NO Occupations:
  HONO-2 :    2B1u 1.9997385
  HONO-1 :    1B2u 1.9982074
  HONO-0 :    1B3g 1.0000000
  LUNO+0 :    2B2u 0.0017926
  LUNO+1 :    3B1u 0.0002615
  LUNO+2 :    4 Ag 0.0001516
  LUNO+3 :    2B3u 0.0000513

Computation Completed

Properties will be evaluated at   0.000000,   0.000000,   0.000000 [a0]

Properties computed using the B3LYP density matrix

 Multipole Moments:

 ------------------------------------------------------------------------------------
     Multipole            Electronic (a.u.)      Nuclear  (a.u.)        Total (a.u.)
 ------------------------------------------------------------------------------------

 L = 1.  Multiply by 2.5417464519 to convert [e a0] to [Debye]
 Dipole X            :          0.0000000            0.0000000            0.0000000
 Dipole Y            :          0.0000000            0.0000000            0.0000000
 Dipole Z            :          0.0000000            0.0000000            0.0000000
 Magnitude           :                                                    0.0000000

 L = 2.  Multiply by 1.3450342976 to convert [e a0^2] to [Debye ang]
 Quadrupole XX       :         -9.7654288            0.0000000           -9.7654288
 Quadrupole XY       :          0.0000000            0.0000000            0.0000000
 Quadrupole XZ       :          0.0000000            0.0000000            0.0000000
 Quadrupole YY       :         -8.9704856            0.0000000           -8.9704856
 Quadrupole YZ       :          0.0000000            0.0000000            0.0000000
 Quadrupole ZZ       :        -43.0503465           31.6692932          -11.3810533
 Traceless XX        :         10.8299915          -10.5564311            0.2735605
 Traceless YY        :         11.6249347          -10.5564311            1.0685036
 Traceless ZZ        :        -22.4549262           21.1128622           -1.3420641

 ------------------------------------------------------------------------------------
  ==> Computing MBIS Charges <==

  Electron Count from Grid (Expected Number): 17.00000 (17.00000)
  Difference: -0.00000

  MBIS Charges: (a.u.)
   Center  Symbol  Z      Pop.       Charge
      1       O    8    8.499999   -0.499999
      2       O    8    8.499999   -0.499999

  MBIS Dipoles: [e a0]
   Center  Symbol  Z        X           Y           Z
      1       O    8   -0.000000   -0.000000    0.140941
      2       O    8   -0.000000    0.000000   -0.140941

  MBIS Quadrupoles: [e a0^2]
   Center  Symbol  Z      XX        XY        XZ        YY        YZ        ZZ
      1       O    8   -4.8827    0.0000    0.0000   -4.4852    0.0000   -4.3043
      2       O    8   -4.8827    0.0000   -0.0000   -4.4852   -0.0000   -4.3043

  MBIS Octupoles: [e a0^3]
   Center  Symbol  Z      XXX       XXY       XXZ       XYY       XYZ       XZZ       YYY       YYZ       YZZ       ZZZ
      1       O    8   -0.0000   -0.0000    0.2010    0.0000   -0.0000    0.0000    0.0000    0.0781   -0.0000   -0.2084
      2       O    8   -0.0000   -0.0000   -0.2010    0.0000    0.0000    0.0000    0.0000   -0.0781    0.0000    0.2084

  MBIS Radial Moments:
   Center  Symbol  Z      [a0^2]      [a0^3]      [a0^4]
      1       O    8   13.672242   27.488106   65.923087
      2       O    8   13.672242   27.488106   65.923087

  MBIS Valence Widths: [a0]
   Center  Symbol  Z     Width
      1       O    8    0.408897
      2       O    8    0.408897

*** tstop() called on Mac.lan at Sun Aug 10 17:28:29 2025
Module time:
	user time   =       3.24 seconds =       0.05 minutes
	system time =       2.59 seconds =       0.04 minutes
	total time  =          1 seconds =       0.02 minutes
Total time:
	user time   =      14.85 seconds =       0.25 minutes
	system time =       4.39 seconds =       0.07 minutes
	total time  =          2 seconds =       0.03 minutes

    Psi4 stopped on: Sunday, 10 August 2025 05:28PM
    Psi4 wall time for execution: 0:00:01.87

*** Psi4 exiting successfully. Buy a developer a beer!
