                               Psi4 1.9.1 release

  ==> Input File <==

--------------------------------------------------------------------------
molecule {
-1 1
O           0.000000           0.000000           0.000000
H           0.000000           0.000000           0.590564
}

set {
basis              cc-pvtz
reference          uks
maxiter            500
DAMPING_PERCENTAGE 1
E_CONVERGENCE      1.0E-8
D_CONVERGENCE      1.0E-8
DIIS_MAX_VECS      400
MBIS_MAXITER       8000
guess              read
}

E, wfn = energy('b3lyp', restart_file='last_wfn', return_wfn=True)
properties('b3lyp','MBIS_CHARGES', wfn=wfn)
wfn.to_file('last_wfn')
--------------------------------------------------------------------------

    Molecular point group: c2v
  Charge       = -1
  Multiplicity = 1
  Basis Set: CC-PVTZ
    Blend: CC-PVTZ
  Basis Set: (CC-PVTZ AUX)
    Blend: CC-PVTZ-JKFIT
  @DF-UKS Final Energy:   -75.43095798401767
    Total Energy =                        -75.4309579840176667
 Dipole X            :          0.0000000            0.0000000            0.0000000
 Dipole Y            :          0.0000000            0.0000000            0.0000000
 Dipole Z            :          0.1136452            0.5206512            0.6342964
 Magnitude           :                                                    0.6342964
    Molecular point group: c2v

    Geometry (in Angstrom), charge = -1, multiplicity = 1:

       Center              X                  Y                   Z               Mass
    ------------   -----------------  -----------------  -----------------  -----------------
         O            0.000000000000     0.000000000000    -0.035005251773    15.994914619570
         H            0.000000000000     0.000000000000     0.555558748227     1.007825032230

  Charge       = -1
  Multiplicity = 1
  Basis Set: CC-PVTZ
    Blend: CC-PVTZ
  Basis Set: (CC-PVTZ AUX)
    Blend: CC-PVTZ-JKFIT

    Orbital Energies [Eh]
    ---------------------

    Alpha Occupied:

       1A1   -18.607880     2A1    -0.661529     3A1    -0.039663
       1B2     0.116799     1B1     0.116799

    Alpha Virtual:

       4A1     0.335029     5A1     0.801523     2B2     0.905011
       2B1     0.905011     6A1     1.026406     3B2     1.170597
       3B1     1.170597     7A1     1.171515     1A2     1.892779
       8A1     1.892779     9A1     2.158626     4B2     2.280479
       4B1     2.280479    10A1     2.539671    11A1     3.321382
       5B2     3.738512     5B1     3.738512    12A1     3.845871
       2A2     3.845871     6B1     4.142373     6B2     4.142373
      13A1     4.393413     7B2     5.123912     7B1     5.123912
      14A1     5.176581     8B1     5.589919     8B2     5.589919
      15A1     6.462145     3A2     6.462145    16A1     6.550170
       9B1     6.603866     9B2     6.603866     4A2     6.702168
      17A1     6.702168    18A1     8.432884    19A1     8.767320
      10B2     9.044464    10B1     9.044464    20A1    16.145753

    Beta Occupied:

       1A1   -18.607880     2A1    -0.661529     3A1    -0.039663
       1B2     0.116799     1B1     0.116799

    Beta Virtual:

       4A1     0.335029     5A1     0.801523     2B2     0.905011
       2B1     0.905011     6A1     1.026406     3B2     1.170597
       3B1     1.170597     7A1     1.171515     1A2     1.892779
       8A1     1.892779     9A1     2.158626     4B2     2.280479
       4B1     2.280479    10A1     2.539671    11A1     3.321382
       5B2     3.738512     5B1     3.738512    12A1     3.845871
       2A2     3.845871     6B1     4.142373     6B2     4.142373
      13A1     4.393413     7B2     5.123912     7B1     5.123912
      14A1     5.176581     8B2     5.589919     8B1     5.589919
      15A1     6.462145     3A2     6.462145    16A1     6.550170
       9B1     6.603866     9B2     6.603866     4A2     6.702168
      17A1     6.702168    18A1     8.432884    19A1     8.767320
      10B2     9.044464    10B1     9.044464    20A1    16.145753

    Final Occupation by Irrep:
             A1    A2    B1    B2
    DOCC [     3,    0,    1,    1 ]
    SOCC [     0,    0,    0,    0 ]
    NA   [     3,    0,    1,    1 ]
    NB   [     3,    0,    1,    1 ]

  @DF-UKS Final Energy:   -75.43095798399955

   => Energetics <=

    Nuclear Repulsion Energy =              7.1684316777859820
    One-Electron Energy =                -121.5282343877591842
    Two-Electron Energy =                  46.6205455898947108
    DFT Exchange-Correlation Energy =      -7.6917008639210751
    Empirical Dispersion Energy =           0.0000000000000000
    VV10 Nonlocal Energy =                  0.0000000000000000
    Total Energy =                        -75.4309579839995621

  UHF NO Occupations:
  HONO-2 :    1 B2 2.0000000
  HONO-1 :    1 B1 2.0000000
  HONO-0 :    3 A1 2.0000000
  LUNO+0 :    4 A1 0.0000000
  LUNO+1 :    5 A1 0.0000000
  LUNO+2 :    6 A1 0.0000000
  LUNO+3 :    7 A1 0.0000000

Computation Completed

Properties will be evaluated at   0.000000,   0.000000,   0.000000 [a0]

Properties computed using the B3LYP density matrix

 Multipole Moments:

 ------------------------------------------------------------------------------------
     Multipole            Electronic (a.u.)      Nuclear  (a.u.)        Total (a.u.)
 ------------------------------------------------------------------------------------

 L = 1.  Multiply by 2.5417464519 to convert [e a0] to [Debye]
 Dipole X            :          0.0000000            0.0000000            0.0000000
 Dipole Y            :          0.0000000            0.0000000            0.0000000
 Dipole Z            :          0.1136452            0.5206512            0.6342964
 Magnitude           :                                                    0.6342964

 L = 2.  Multiply by 1.3450342976 to convert [e a0^2] to [Debye ang]
 Quadrupole XX       :         -5.9747961            0.0000000           -5.9747961
 Quadrupole XY       :          0.0000000            0.0000000            0.0000000
 Quadrupole XZ       :          0.0000000            0.0000000            0.0000000
 Quadrupole YY       :         -5.9747961            0.0000000           -5.9747961
 Quadrupole YZ       :          0.0000000            0.0000000            0.0000000
 Quadrupole ZZ       :         -6.0716795            1.1372001           -4.9344794
 Traceless XX        :          0.0322945           -0.3790667           -0.3467722
 Traceless YY        :          0.0322945           -0.3790667           -0.3467722
 Traceless ZZ        :         -0.0645889            0.7581334            0.6935445

 ------------------------------------------------------------------------------------
  ==> Computing MBIS Charges <==

  Electron Count from Grid (Expected Number): 10.00000 (10.00000)
  Difference: -0.00000

  MBIS Charges: (a.u.)
   Center  Symbol  Z      Pop.       Charge
      1       O    8    9.513098   -1.513098
      2       H    1    0.486902    0.513098

  MBIS Dipoles: [e a0]
   Center  Symbol  Z        X           Y           Z
      1       O    8   -0.000000    0.000000   -0.018531
      2       H    1    0.000000    0.000000    0.014057

  MBIS Quadrupoles: [e a0^2]
   Center  Symbol  Z      XX        XY        XZ        YY        YZ        ZZ
      1       O    8   -5.8718    0.0000    0.0000   -5.8718   -0.0000   -5.4253
      2       H    1   -0.1030   -0.0000    0.0000   -0.1030    0.0000   -0.1000

  MBIS Octupoles: [e a0^3]
   Center  Symbol  Z      XXX       XXY       XXZ       XYY       XYZ       XZZ       YYY       YYZ       YZZ       ZZZ
      1       O    8   -0.0000   -0.0000    0.1746   -0.0000    0.0000    0.0000    0.0000    0.1746   -0.0000    0.2208
      2       H    1   -0.0000   -0.0000    0.0028    0.0000    0.0000    0.0000    0.0000    0.0028    0.0000    0.0060

  MBIS Radial Moments:
   Center  Symbol  Z      [a0^2]      [a0^3]      [a0^4]
      1       O    8   17.168833   35.925644   88.509579
      2       H    1    0.306118    0.347356    0.474732

  MBIS Valence Widths: [a0]
   Center  Symbol  Z     Width
      1       O    8    0.428104
      2       H    1    0.230527

*** tstop() called on Mac.lan at Sun Aug 10 17:37:23 2025
Module time:
	user time   =       3.42 seconds =       0.06 minutes
	system time =       3.42 seconds =       0.06 minutes
	total time  =          1 seconds =       0.02 minutes
Total time:
	user time   =      12.80 seconds =       0.21 minutes
	system time =       5.43 seconds =       0.09 minutes
	total time  =          2 seconds =       0.03 minutes

    Psi4 stopped on: Sunday, 10 August 2025 05:37PM
    Psi4 wall time for execution: 0:00:01.78

*** Psi4 exiting successfully. Buy a developer a beer!
