                               Psi4 1.9.1 release

  ==> Input File <==

--------------------------------------------------------------------------
molecule {
-1 2
C           0.000000           0.000000           0.000000
C           0.000000           0.000000           0.616718
}

set {
basis              cc-pvtz
reference          uks
maxiter            500
DAMPING_PERCENTAGE 1
E_CONVERGENCE      1.0E-8
D_CONVERGENCE      1.0E-8
DIIS_MAX_VECS      400
MBIS_MAXITER       8000
guess              read
}

E, wfn = energy('b3lyp', restart_file='last_wfn', return_wfn=True)
properties('b3lyp','MBIS_CHARGES', wfn=wfn)
wfn.to_file('last_wfn')
--------------------------------------------------------------------------

    Molecular point group: d2h
  Charge       = -1
  Multiplicity = 2
  Basis Set: CC-PVTZ
    Blend: CC-PVTZ
  Basis Set: (CC-PVTZ AUX)
    Blend: CC-PVTZ-JKFIT
  @DF-UKS Final Energy:   -73.51084495092027
    Total Energy =                        -73.5108449509202728
 Dipole X            :          0.0000000            0.0000000            0.0000000
 Dipole Y            :          0.0000000            0.0000000            0.0000000
 Dipole Z            :          0.0000000           -0.0000000           -0.0000000
 Magnitude           :                                                    0.0000000
    Molecular point group: d2h

    Geometry (in Angstrom), charge = -1, multiplicity = 2:

       Center              X                  Y                   Z               Mass
    ------------   -----------------  -----------------  -----------------  -----------------
         C            0.000000000000     0.000000000000    -0.308359000000    12.000000000000
         C            0.000000000000     0.000000000000     0.308359000000    12.000000000000

  Charge       = -1
  Multiplicity = 2
  Basis Set: CC-PVTZ
    Blend: CC-PVTZ
  Basis Set: (CC-PVTZ AUX)
    Blend: CC-PVTZ-JKFIT

    Orbital Energies [Eh]
    ---------------------

    Alpha Occupied:

       1Ag   -10.273047     1B1u   -9.884049     2Ag    -0.368366
       1B3u   -0.247557     1B2u   -0.247557     2B1u    0.035459
       3Ag     0.075798

    Alpha Virtual:

       3B1u    0.406241     1B3g    0.431690     1B2g    0.431690
       2B3u    0.453064     2B2u    0.453064     4Ag     0.480923
       5Ag     0.683684     2B3g    0.846642     2B2g    0.846642
       6Ag     0.911094     1B1g    0.911094     4B1u    0.975040
       3B3u    1.252247     3B2u    1.252247     5B1u    1.272860
       1Au     1.272860     6B1u    1.290295     7Ag     1.350010
       3B3g    1.578597     3B2g    1.578597     4B3u    1.883190
       4B2u    1.883190     8Ag     2.427235     5B2u    2.802694
       5B3u    2.802694     7B1u    2.803332     9Ag     2.822889
       2B1g    2.822889     4B3g    2.992213     4B2g    2.992214
       8B1u    3.038044     6B3u    3.105105     6B2u    3.105105
       9B1u    3.136097     2Au     3.136097    10Ag     3.505176
       3B1g    3.626902    11Ag     3.626902     5B2g    3.633087
       5B3g    3.633087     6B3g    3.686654     6B2g    3.686654
      12Ag     3.902211    10B1u    4.728976    13Ag     5.085768
       3Au     5.378844    11B1u    5.378844     7B2u    5.380682
       7B3u    5.380682     7B3g    6.766630     7B2g    6.766630
      12B1u    8.498462    13B1u   22.053794

    Beta Occupied:

       1Ag   -10.240194     1B1u   -9.859535     2Ag    -0.330556
       1B3u   -0.224796     1B2u   -0.224796     2B1u    0.081269

    Beta Virtual:

       3Ag     0.243714     3B1u    0.418879     1B3g    0.437024
       1B2g    0.437024     2B3u    0.459426     2B2u    0.459426
       4Ag     0.520375     5Ag     0.700836     2B3g    0.857806
       2B2g    0.857806     6Ag     0.910328     1B1g    0.910328
       4B1u    0.993113     3B3u    1.269715     3B2u    1.269715
       5B1u    1.275916     1Au     1.275916     6B1u    1.309931
       7Ag     1.396293     3B3g    1.590755     3B2g    1.590755
       4B3u    1.899056     4B2u    1.899056     8Ag     2.459025
       5B2u    2.802664     5B3u    2.802664     9Ag     2.837847
       2B1g    2.837849     7B1u    2.851334     4B3g    3.001830
       4B2g    3.001830     8B1u    3.074491     9B1u    3.145286
       2Au     3.145286     6B3u    3.146247     6B2u    3.146247
      10Ag     3.538781     5B2g    3.631508     5B3g    3.631508
       3B1g    3.638940    11Ag     3.638940     6B3g    3.716242
       6B2g    3.716242    12Ag     3.925431    10B1u    4.757964
      13Ag     5.153803    11B1u    5.384941     3Au     5.384941
       7B2u    5.412946     7B3u    5.412946     7B3g    6.785354
       7B2g    6.785354    12B1u    8.560458    13B1u   22.077740

    Final Occupation by Irrep:
             Ag   B1g   B2g   B3g    Au   B1u   B2u   B3u
    DOCC [     2,    0,    0,    0,    0,    2,    1,    1 ]
    SOCC [     1,    0,    0,    0,    0,    0,    0,    0 ]
    NA   [     3,    0,    0,    0,    0,    2,    1,    1 ]
    NB   [     2,    0,    0,    0,    0,    2,    1,    1 ]

  @DF-UKS Final Energy:   -73.51084495219528

   => Energetics <=

    Nuclear Repulsion Energy =             30.8899360552472935
    One-Electron Energy =                -160.2391186534183589
    Two-Electron Energy =                  65.3755998271313530
    DFT Exchange-Correlation Energy =      -9.5372621811555636
    Empirical Dispersion Energy =           0.0000000000000000
    VV10 Nonlocal Energy =                  0.0000000000000000
    Total Energy =                        -73.5108449521952849

  UHF NO Occupations:
  HONO-2 :    2 Ag 1.9994950
  HONO-1 :    2B1u 1.9984037
  HONO-0 :    3 Ag 1.0000000
  LUNO+0 :    3B1u 0.0015963
  LUNO+1 :    4 Ag 0.0005050
  LUNO+2 :    2B2u 0.0001662
  LUNO+3 :    2B3u 0.0001662

Computation Completed

Properties will be evaluated at   0.000000,   0.000000,   0.000000 [a0]

Properties computed using the B3LYP density matrix

 Multipole Moments:

 ------------------------------------------------------------------------------------
     Multipole            Electronic (a.u.)      Nuclear  (a.u.)        Total (a.u.)
 ------------------------------------------------------------------------------------

 L = 1.  Multiply by 2.5417464519 to convert [e a0] to [Debye]
 Dipole X            :          0.0000000            0.0000000            0.0000000
 Dipole Y            :          0.0000000            0.0000000            0.0000000
 Dipole Z            :          0.0000000           -0.0000000           -0.0000000
 Magnitude           :                                                    0.0000000

 L = 2.  Multiply by 1.3450342976 to convert [e a0^2] to [Debye ang]
 Quadrupole XX       :         -8.8135247            0.0000000           -8.8135247
 Quadrupole XY       :          0.0000000            0.0000000            0.0000000
 Quadrupole XZ       :          0.0000000            0.0000000            0.0000000
 Quadrupole YY       :         -8.8135247            0.0000000           -8.8135247
 Quadrupole YZ       :          0.0000000            0.0000000            0.0000000
 Quadrupole ZZ       :        -18.0780584            4.0746681          -14.0033903
 Traceless XX        :          3.0881779           -1.3582227            1.7299552
 Traceless YY        :          3.0881779           -1.3582227            1.7299552
 Traceless ZZ        :         -6.1763558            2.7164454           -3.4599104

 ------------------------------------------------------------------------------------
  ==> Computing MBIS Charges <==

  Electron Count from Grid (Expected Number): 13.00000 (13.00000)
  Difference:  0.00000

  MBIS Charges: (a.u.)
   Center  Symbol  Z      Pop.       Charge
      1       C    6    6.500000   -0.500000
      2       C    6    6.500000   -0.500000

  MBIS Dipoles: [e a0]
   Center  Symbol  Z        X           Y           Z
      1       C    6   -0.000000    0.000000    0.277403
      2       C    6   -0.000000    0.000000   -0.277403

  MBIS Quadrupoles: [e a0^2]
   Center  Symbol  Z      XX        XY        XZ        YY        YZ        ZZ
      1       C    6   -4.4068    0.0000    0.0000   -4.4068   -0.0000   -6.5086
      2       C    6   -4.4068    0.0000   -0.0000   -4.4068    0.0000   -6.5086

  MBIS Octupoles: [e a0^3]
   Center  Symbol  Z      XXX       XXY       XXZ       XYY       XYZ       XZZ       YYY       YYZ       YZZ       ZZZ
      1       C    6   -0.0000   -0.0000    0.8978   -0.0000    0.0000   -0.0000    0.0000    0.8978    0.0000    3.4347
      2       C    6   -0.0000   -0.0000   -0.8978   -0.0000   -0.0000   -0.0000    0.0000   -0.8978    0.0000   -3.4347

  MBIS Radial Moments:
   Center  Symbol  Z      [a0^2]      [a0^3]      [a0^4]
      1       C    6   15.322148   40.837434   133.757083
      2       C    6   15.322148   40.837434   133.757083

  MBIS Valence Widths: [a0]
   Center  Symbol  Z     Width
      1       C    6    0.506935
      2       C    6    0.506935

*** tstop() called on Mac.lan at Sun Aug 10 17:30:17 2025
Module time:
	user time   =       4.05 seconds =       0.07 minutes
	system time =       1.91 seconds =       0.03 minutes
	total time  =          1 seconds =       0.02 minutes
Total time:
	user time   =      18.30 seconds =       0.30 minutes
	system time =       3.86 seconds =       0.06 minutes
	total time  =          3 seconds =       0.05 minutes

    Psi4 stopped on: Sunday, 10 August 2025 05:30PM
    Psi4 wall time for execution: 0:00:02.15

*** Psi4 exiting successfully. Buy a developer a beer!
