                               Psi4 1.9.1 release

  ==> Input File <==

--------------------------------------------------------------------------
molecule {
-1 2
O           0.000000           0.000000           0.000000
C           0.000000           0.000000           0.858278
}

set {
basis              cc-pvtz
reference          uks
maxiter            500
DAMPING_PERCENTAGE 1
E_CONVERGENCE      1.0E-8
D_CONVERGENCE      1.0E-8
DIIS_MAX_VECS      400
MBIS_MAXITER       8000
guess              read
}

E, wfn = energy('b3lyp', restart_file='last_wfn', return_wfn=True)
properties('b3lyp','MBIS_CHARGES', wfn=wfn)
wfn.to_file('last_wfn')
--------------------------------------------------------------------------

    Molecular point group: c2v
  Charge       = -1
  Multiplicity = 2
  Basis Set: CC-PVTZ
    Blend: CC-PVTZ
  Basis Set: (CC-PVTZ AUX)
    Blend: CC-PVTZ-JKFIT
  @DF-UKS Final Energy:  -112.85111293325468
    Total Energy =                       -112.8511129332546830
 Dipole X            :          0.0000000            0.0000000            0.0000000
 Dipole Y            :          0.0000000            0.0000000            0.0000000
 Dipole Z            :         -1.4721102           -0.0017678           -1.4738779
 Magnitude           :                                                    1.4738779
    Molecular point group: c2v

    Geometry (in Angstrom), charge = -1, multiplicity = 2:

       Center              X                  Y                   Z               Mass
    ------------   -----------------  -----------------  -----------------  -----------------
         O            0.000000000000     0.000000000000    -0.367900246883    15.994914619570
         C            0.000000000000     0.000000000000     0.490377753117    12.000000000000

  Charge       = -1
  Multiplicity = 2
  Basis Set: CC-PVTZ
    Blend: CC-PVTZ
  Basis Set: (CC-PVTZ AUX)
    Blend: CC-PVTZ-JKFIT

    Orbital Energies [Eh]
    ---------------------

    Alpha Occupied:

       1A1   -18.866004     2A1    -9.873348     3A1    -0.980185
       1B1    -0.288821     1B2    -0.282573     4A1    -0.276414
       5A1    -0.044984     2B1     0.285297

    Alpha Virtual:

       2B2     0.352874     6A1     0.400993     7A1     0.558023
       3B1     0.562389     3B2     0.565865     8A1     0.791797
       4B1     0.856460     4B2     0.860944     1A2     0.923326
       9A1     0.925676    10A1     1.112119     5B1     1.271434
       5B2     1.273513    11A1     1.516625     2A2     1.872282
      12A1     1.873302     6B2     2.045993     6B1     2.048915
      13A1     2.056303    14A1     2.318292     7B1     2.434280
       7B2     2.435284     8B1     2.954503     8B2     2.954585
      15A1     3.004747     3A2     3.213493    16A1     3.214603
       9B2     3.344794     9B1     3.345862     4A2     3.366137
      17A1     3.366805    18A1     3.428458    10B1     3.930021
      10B2     3.932612    19A1     4.214591    11B2     4.567097
      11B1     4.569599    12B1     5.461899    12B2     5.461920
      20A1     5.760113     5A2     6.304168    21A1     6.304589
       6A2     6.576009    22A1     6.576703    23A1     6.640634
      13B2     6.822261    13B1     6.822663    24A1     7.349268
      14B2     7.510696    14B1     7.510773    25A1     9.398527
      26A1    16.215740

    Beta Occupied:

       1A1   -18.859089     2A1    -9.871691     3A1    -0.971467
       1B2    -0.278366     4A1    -0.264856     1B1    -0.257158
       5A1    -0.025036

    Beta Virtual:

       2B2     0.362801     2B1     0.387068     6A1     0.407517
       3B2     0.568089     7A1     0.573773     3B1     0.586041
       8A1     0.798689     4B2     0.864043     4B1     0.879125
       1A2     0.945974     9A1     0.946152    10A1     1.121393
       5B2     1.275893     5B1     1.299056    11A1     1.522492
       2A2     1.887530    12A1     1.887575     6B2     2.048348
      13A1     2.062348     6B1     2.067501    14A1     2.331840
       7B2     2.437209     7B1     2.453106     8B2     2.971118
       8B1     2.971155    15A1     3.010402     3A2     3.229616
      16A1     3.229671     9B2     3.343852     9B1     3.364438
      17A1     3.375771     4A2     3.377454    18A1     3.435424
      10B2     3.936225    10B1     3.956141    19A1     4.220184
      11B2     4.569394    11B1     4.587912    12B2     5.476014
      12B1     5.476018    20A1     5.767200     5A2     6.317277
      21A1     6.317322    22A1     6.596855     6A2     6.597170
      23A1     6.646180    13B2     6.824766    13B1     6.841030
      24A1     7.355570    14B2     7.513143    14B1     7.530129
      25A1     9.406563    26A1    16.224668

    Final Occupation by Irrep:
             A1    A2    B1    B2
    DOCC [     5,    0,    1,    1 ]
    SOCC [     0,    0,    1,    0 ]
    NA   [     5,    0,    2,    1 ]
    NB   [     5,    0,    1,    1 ]

  @DF-UKS Final Energy:  -112.85111293269948

   => Energetics <=

    Nuclear Repulsion Energy =             29.5947305094153634
    One-Electron Energy =                -215.5802114971305343
    Two-Electron Energy =                  84.9093469719338572
    DFT Exchange-Correlation Energy =     -11.7749789169181760
    Empirical Dispersion Energy =           0.0000000000000000
    VV10 Nonlocal Energy =                  0.0000000000000000
    Total Energy =                       -112.8511129326994791

  UHF NO Occupations:
  HONO-2 :    1 B1 1.9998527
  HONO-1 :    5 A1 1.9995628
  HONO-0 :    2 B1 1.0000000
  LUNO+0 :    6 A1 0.0004372
  LUNO+1 :    3 B1 0.0001473
  LUNO+2 :    7 A1 0.0000358
  LUNO+3 :    2 B2 0.0000082

Computation Completed

Properties will be evaluated at   0.000000,   0.000000,   0.000000 [a0]

Properties computed using the B3LYP density matrix

 Multipole Moments:

 ------------------------------------------------------------------------------------
     Multipole            Electronic (a.u.)      Nuclear  (a.u.)        Total (a.u.)
 ------------------------------------------------------------------------------------

 L = 1.  Multiply by 2.5417464519 to convert [e a0] to [Debye]
 Dipole X            :          0.0000000            0.0000000            0.0000000
 Dipole Y            :          0.0000000            0.0000000            0.0000000
 Dipole Z            :         -1.4721102           -0.0017678           -1.4738779
 Magnitude           :                                                    1.4738779

 L = 2.  Multiply by 1.3450342976 to convert [e a0^2] to [Debye ang]
 Quadrupole XX       :        -12.8297103            0.0000000          -12.8297103
 Quadrupole XY       :          0.0000000            0.0000000            0.0000000
 Quadrupole XZ       :          0.0000000            0.0000000            0.0000000
 Quadrupole YY       :         -9.3704832            0.0000000           -9.3704832
 Quadrupole YZ       :          0.0000000            0.0000000            0.0000000
 Quadrupole ZZ       :        -22.0873832            9.0191770          -13.0682063
 Traceless XX        :          1.9328153           -3.0063923           -1.0735770
 Traceless YY        :          5.3920424           -3.0063923            2.3856501
 Traceless ZZ        :         -7.3248577            6.0127846           -1.3120730

 ------------------------------------------------------------------------------------
  ==> Computing MBIS Charges <==

  Electron Count from Grid (Expected Number): 15.00000 (15.00000)
  Difference: -0.00000

  MBIS Charges: (a.u.)
   Center  Symbol  Z      Pop.       Charge
      1       O    8    7.898293    0.101707
      2       C    6    7.101706   -1.101706

  MBIS Dipoles: [e a0]
   Center  Symbol  Z        X           Y           Z
      1       O    8   -0.000000    0.000000    0.014760
      2       C    6    0.000000    0.000000   -0.397000

  MBIS Quadrupoles: [e a0^2]
   Center  Symbol  Z      XX        XY        XZ        YY        YZ        ZZ
      1       O    8   -3.0495    0.0000    0.0000   -2.8791   -0.0000   -3.4295
      2       C    6   -9.7802    0.0000    0.0000   -6.4914    0.0000   -7.9855

  MBIS Octupoles: [e a0^3]
   Center  Symbol  Z      XXX       XXY       XXZ       XYY       XYZ       XZZ       YYY       YYZ       YZZ       ZZZ
      1       O    8   -0.0000    0.0000    0.0241   -0.0000   -0.0000   -0.0000   -0.0000    0.0951    0.0000    0.2654
      2       C    6    0.0000    0.0000   -2.8416    0.0000    0.0000    0.0000    0.0000   -0.8684    0.0000   -0.7845

  MBIS Radial Moments:
   Center  Symbol  Z      [a0^2]      [a0^3]      [a0^4]
      1       O    8    9.358170   15.992066   33.025826
      2       C    6   24.257010   73.008748   255.967769

  MBIS Valence Widths: [a0]
   Center  Symbol  Z     Width
      1       O    8    0.352606
      2       C    6    0.615688

*** tstop() called on Mac.lan at Sun Aug 10 17:42:07 2025
Module time:
	user time   =       3.74 seconds =       0.06 minutes
	system time =       2.16 seconds =       0.04 minutes
	total time  =          0 seconds =       0.00 minutes
Total time:
	user time   =      17.67 seconds =       0.29 minutes
	system time =       4.36 seconds =       0.07 minutes
	total time  =          2 seconds =       0.03 minutes

    Psi4 stopped on: Sunday, 10 August 2025 05:42PM
    Psi4 wall time for execution: 0:00:02.13

*** Psi4 exiting successfully. Buy a developer a beer!
