                               Psi4 1.9.1 release

  ==> Input File <==

--------------------------------------------------------------------------
molecule {
-1 2
H           0.000000           0.000000           0.000000
H           0.000000           0.000000           1.554363
}

set {
basis              cc-pvtz
reference          uks
maxiter            500
DAMPING_PERCENTAGE 1
E_CONVERGENCE      1.0E-8
D_CONVERGENCE      1.0E-8
DIIS_MAX_VECS      400
MBIS_MAXITER       8000
guess              read
}

E, wfn = energy('b3lyp', restart_file='last_wfn', return_wfn=True)
properties('b3lyp','MBIS_CHARGES', wfn=wfn)
wfn.to_file('last_wfn')
--------------------------------------------------------------------------

    Molecular point group: d2h
  Charge       = -1
  Multiplicity = 2
  Basis Set: CC-PVTZ
    Blend: CC-PVTZ
  Basis Set: (CC-PVTZ AUX)
    Blend: CC-PVTZ-JKFIT
  @DF-UKS Final Energy:    -1.05692809679841
    Total Energy =                         -1.0569280967984103
 Dipole X            :          0.0000000            0.0000000            0.0000000
 Dipole Y            :          0.0000000            0.0000000            0.0000000
 Dipole Z            :          0.0000000            0.0000000            0.0000000
 Magnitude           :                                                    0.0000000
    Molecular point group: d2h

    Geometry (in Angstrom), charge = -1, multiplicity = 2:

       Center              X                  Y                   Z               Mass
    ------------   -----------------  -----------------  -----------------  -----------------
         H            0.000000000000     0.000000000000    -0.777181500000     1.007825032230
         H            0.000000000000     0.000000000000     0.777181500000     1.007825032230

  Charge       = -1
  Multiplicity = 2
  Basis Set: CC-PVTZ
    Blend: CC-PVTZ
  Basis Set: (CC-PVTZ AUX)
    Blend: CC-PVTZ-JKFIT

    Orbital Energies [Eh]
    ---------------------

    Alpha Occupied:

       1Ag    -0.036559     1B1u    0.110336

    Alpha Virtual:

       2Ag     0.500596     2B1u    0.538943     1B3u    0.805122
       1B2u    0.805122     3Ag     0.911743     1B2g    1.031947
       1B3g    1.031947     3B1u    1.406816     4Ag     2.497002
       4B1u    2.670346     5Ag     3.204094     2B2u    3.252103
       2B3u    3.252103     1B1g    3.460009     6Ag     3.460009
       1Au     3.557071     5B1u    3.557072     2B3g    3.782990
       2B2g    3.782990     3B2u    3.886985     3B3u    3.886985
       6B1u    3.977014     3B2g    4.081876     3B3g    4.081876
       7Ag     4.219908     7B1u    4.985577

    Beta Occupied:

       1Ag     0.018450

    Beta Virtual:

       1B1u    0.222219     2Ag     0.525156     2B1u    0.589135
       1B3u    0.830927     1B2u    0.830927     3Ag     0.950776
       1B2g    1.074281     1B3g    1.074281     3B1u    1.450951
       4Ag     2.570257     4B1u    2.739266     5Ag     3.236360
       2B2u    3.293880     2B3u    3.293880     1B1g    3.505341
       6Ag     3.505341     1Au     3.603757     5B1u    3.603758
       2B3g    3.825574     2B2g    3.825574     3B2u    3.947340
       3B3u    3.947340     6B1u    4.032528     3B2g    4.145740
       3B3g    4.145740     7Ag     4.280077     7B1u    5.034870

    Final Occupation by Irrep:
             Ag   B1g   B2g   B3g    Au   B1u   B2u   B3u
    DOCC [     1,    0,    0,    0,    0,    0,    0,    0 ]
    SOCC [     0,    0,    0,    0,    0,    1,    0,    0 ]
    NA   [     1,    0,    0,    0,    0,    1,    0,    0 ]
    NB   [     1,    0,    0,    0,    0,    0,    0,    0 ]

  @DF-UKS Final Energy:    -1.05692809640870

   => Energetics <=

    Nuclear Repulsion Energy =              0.3404463504792639
    One-Electron Energy =                  -2.4021668923007877
    Two-Electron Energy =                   1.6721778520351536
    DFT Exchange-Correlation Energy =      -0.6673854066223277
    Empirical Dispersion Energy =           0.0000000000000000
    VV10 Nonlocal Energy =                  0.0000000000000000
    Total Energy =                         -1.0569280964086980

  UHF NO Occupations:
  HONO-1 :    1 Ag 1.9977405
  HONO-0 :    1B1u 1.0000000
  LUNO+0 :    2 Ag 0.0022595
  LUNO+1 :    3 Ag 0.0000000
  LUNO+2 :    4 Ag 0.0000000
  LUNO+3 :    2B1u 0.0000000

Computation Completed

Properties will be evaluated at   0.000000,   0.000000,   0.000000 [a0]

Properties computed using the B3LYP density matrix

 Multipole Moments:

 ------------------------------------------------------------------------------------
     Multipole            Electronic (a.u.)      Nuclear  (a.u.)        Total (a.u.)
 ------------------------------------------------------------------------------------

 L = 1.  Multiply by 2.5417464519 to convert [e a0] to [Debye]
 Dipole X            :          0.0000000            0.0000000            0.0000000
 Dipole Y            :          0.0000000            0.0000000            0.0000000
 Dipole Z            :          0.0000000            0.0000000            0.0000000
 Magnitude           :                                                    0.0000000

 L = 2.  Multiply by 1.3450342976 to convert [e a0^2] to [Debye ang]
 Quadrupole XX       :         -4.3750925            0.0000000           -4.3750925
 Quadrupole XY       :          0.0000000            0.0000000            0.0000000
 Quadrupole XZ       :          0.0000000            0.0000000            0.0000000
 Quadrupole YY       :         -4.3750925            0.0000000           -4.3750925
 Quadrupole YZ       :          0.0000000            0.0000000            0.0000000
 Quadrupole ZZ       :        -12.1303945            4.3139255           -7.8164690
 Traceless XX        :          2.5851007           -1.4379752            1.1471255
 Traceless YY        :          2.5851007           -1.4379752            1.1471255
 Traceless ZZ        :         -5.1702014            2.8759503           -2.2942511

 ------------------------------------------------------------------------------------
  ==> Computing MBIS Charges <==

  Electron Count from Grid (Expected Number):  3.00000 ( 3.00000)
  Difference: -0.00000

  MBIS Charges: (a.u.)
   Center  Symbol  Z      Pop.       Charge
      1       H    1    1.500000   -0.500000
      2       H    1    1.500000   -0.500000

  MBIS Dipoles: [e a0]
   Center  Symbol  Z        X           Y           Z
      1       H    1   -0.000000   -0.000000    0.152217
      2       H    1    0.000000   -0.000000   -0.152217

  MBIS Quadrupoles: [e a0^2]
   Center  Symbol  Z      XX        XY        XZ        YY        YZ        ZZ
      1       H    1   -2.1875    0.0000   -0.0000   -2.1875   -0.0000   -2.3826
      2       H    1   -2.1875   -0.0000    0.0000   -2.1875    0.0000   -2.3826

  MBIS Octupoles: [e a0^3]
   Center  Symbol  Z      XXX       XXY       XXZ       XYY       XYZ       XZZ       YYY       YYZ       YZZ       ZZZ
      1       H    1   -0.0000   -0.0000    0.2959   -0.0000    0.0000   -0.0000   -0.0000    0.2959    0.0000    0.4975
      2       H    1   -0.0000    0.0000   -0.2959    0.0000   -0.0000    0.0000    0.0000   -0.2959   -0.0000   -0.4975

  MBIS Radial Moments:
   Center  Symbol  Z      [a0^2]      [a0^3]      [a0^4]
      1       H    1    6.757734   20.265264   70.680424
      2       H    1    6.757734   20.265264   70.680424

  MBIS Valence Widths: [a0]
   Center  Symbol  Z     Width
      1       H    1    0.612875
      2       H    1    0.612875

*** tstop() called on Mac.lan at Sun Aug 10 17:26:32 2025
Module time:
	user time   =       0.49 seconds =       0.01 minutes
	system time =       1.33 seconds =       0.02 minutes
	total time  =          0 seconds =       0.00 minutes
Total time:
	user time   =       1.30 seconds =       0.02 minutes
	system time =       3.46 seconds =       0.06 minutes
	total time  =          0 seconds =       0.00 minutes

    Psi4 stopped on: Sunday, 10 August 2025 05:26PM
    Psi4 wall time for execution: 0:00:00.68

*** Psi4 exiting successfully. Buy a developer a beer!
