                               Psi4 1.9.1 release

  ==> Input File <==

--------------------------------------------------------------------------
molecule {
-1 2
H           0.000000           0.000000           0.000000
H           0.000000           0.000000           0.461915
}

set {
basis              cc-pvtz
reference          uks
maxiter            500
DAMPING_PERCENTAGE 1
E_CONVERGENCE      1.0E-8
D_CONVERGENCE      1.0E-8
DIIS_MAX_VECS      400
MBIS_MAXITER       8000
guess              read
}

E, wfn = energy('b3lyp', restart_file='last_wfn', return_wfn=True)
properties('b3lyp','MBIS_CHARGES', wfn=wfn)
wfn.to_file('last_wfn')
--------------------------------------------------------------------------

    Molecular point group: d2h
  Charge       = -1
  Multiplicity = 2
  Basis Set: CC-PVTZ
    Blend: CC-PVTZ
  Basis Set: (CC-PVTZ AUX)
    Blend: CC-PVTZ-JKFIT
  @DF-UKS Final Energy:    -0.91417729538728
    Total Energy =                         -0.9141772953872757
 Dipole X            :          0.0000000            0.0000000            0.0000000
 Dipole Y            :          0.0000000            0.0000000            0.0000000
 Dipole Z            :          0.0000000            0.0000000            0.0000000
 Magnitude           :                                                    0.0000000
    Molecular point group: d2h

    Geometry (in Angstrom), charge = -1, multiplicity = 2:

       Center              X                  Y                   Z               Mass
    ------------   -----------------  -----------------  -----------------  -----------------
         H            0.000000000000     0.000000000000    -0.230957500000     1.007825032230
         H            0.000000000000     0.000000000000     0.230957500000     1.007825032230

  Charge       = -1
  Multiplicity = 2
  Basis Set: CC-PVTZ
    Blend: CC-PVTZ
  Basis Set: (CC-PVTZ AUX)
    Blend: CC-PVTZ-JKFIT

    Orbital Energies [Eh]
    ---------------------

    Alpha Occupied:

       1Ag    -0.223196     1B1u    0.229786

    Alpha Virtual:

       2Ag     0.381897     2B1u    0.779402     1B3u    0.822363
       1B2u    0.822363     3Ag     1.227840     1B3g    1.236330
       1B2g    1.236330     3B1u    1.681782     4Ag     2.152536
       4B1u    3.093765     1B1g    3.247284     5Ag     3.247284
       2B3u    3.464669     2B2u    3.464669     2B3g    3.609598
       2B2g    3.609598     6Ag     3.739907     5B1u    4.362843
       1Au     4.362843     3B2u    4.388903     3B3u    4.388903
       6B1u    5.084730     7Ag     6.744951     3B3g    7.033690
       3B2g    7.033690     7B1u   10.430181

    Beta Occupied:

       1Ag    -0.217566

    Beta Virtual:

       1B1u    0.325780     2Ag     0.403508     2B1u    0.800769
       1B3u    0.820756     1B2u    0.820756     1B3g    1.246153
       1B2g    1.246153     3Ag     1.260897     3B1u    1.690443
       4Ag     2.157317     4B1u    3.112150     1B1g    3.246810
       5Ag     3.246810     2B3u    3.462590     2B2u    3.462590
       2B3g    3.621540     2B2g    3.621540     6Ag     3.758862
       1Au     4.367402     5B1u    4.367402     3B2u    4.398921
       3B3u    4.398921     6B1u    5.094432     7Ag     6.752357
       3B3g    7.040386     3B2g    7.040386     7B1u   10.437670

    Final Occupation by Irrep:
             Ag   B1g   B2g   B3g    Au   B1u   B2u   B3u
    DOCC [     1,    0,    0,    0,    0,    0,    0,    0 ]
    SOCC [     0,    0,    0,    0,    0,    1,    0,    0 ]
    NA   [     1,    0,    0,    0,    0,    1,    0,    0 ]
    NB   [     1,    0,    0,    0,    0,    0,    0,    0 ]

  @DF-UKS Final Energy:    -0.91417729519814

   => Energetics <=

    Nuclear Repulsion Energy =              1.1456159914053454
    One-Electron Energy =                  -3.3286246865636056
    Two-Electron Energy =                   2.0706889587782382
    DFT Exchange-Correlation Energy =      -0.8018575588181166
    Empirical Dispersion Energy =           0.0000000000000000
    VV10 Nonlocal Energy =                  0.0000000000000000
    Total Energy =                         -0.9141772951981383

  UHF NO Occupations:
  HONO-1 :    1 Ag 1.9998552
  HONO-0 :    1B1u 1.0000000
  LUNO+0 :    2 Ag 0.0001448
  LUNO+1 :    3 Ag 0.0000000
  LUNO+2 :    2B1u 0.0000000
  LUNO+3 :    4 Ag 0.0000000

Computation Completed

Properties will be evaluated at   0.000000,   0.000000,   0.000000 [a0]

Properties computed using the B3LYP density matrix

 Multipole Moments:

 ------------------------------------------------------------------------------------
     Multipole            Electronic (a.u.)      Nuclear  (a.u.)        Total (a.u.)
 ------------------------------------------------------------------------------------

 L = 1.  Multiply by 2.5417464519 to convert [e a0] to [Debye]
 Dipole X            :          0.0000000            0.0000000            0.0000000
 Dipole Y            :          0.0000000            0.0000000            0.0000000
 Dipole Z            :          0.0000000            0.0000000            0.0000000
 Magnitude           :                                                    0.0000000

 L = 2.  Multiply by 1.3450342976 to convert [e a0^2] to [Debye ang]
 Quadrupole XX       :         -4.1171223            0.0000000           -4.1171223
 Quadrupole XY       :          0.0000000            0.0000000            0.0000000
 Quadrupole XZ       :          0.0000000            0.0000000            0.0000000
 Quadrupole YY       :         -4.1171223            0.0000000           -4.1171223
 Quadrupole YZ       :          0.0000000            0.0000000            0.0000000
 Quadrupole ZZ       :        -10.3516132            0.3809710           -9.9706422
 Traceless XX        :          2.0781636           -0.1269903            1.9511733
 Traceless YY        :          2.0781636           -0.1269903            1.9511733
 Traceless ZZ        :         -4.1563272            0.2539806           -3.9023466

 ------------------------------------------------------------------------------------
  ==> Computing MBIS Charges <==

  Electron Count from Grid (Expected Number):  3.00000 ( 3.00000)
  Difference: -0.00000

  MBIS Charges: (a.u.)
   Center  Symbol  Z      Pop.       Charge
      1       H    1    1.500000   -0.500000
      2       H    1    1.500000   -0.500000

  MBIS Dipoles: [e a0]
   Center  Symbol  Z        X           Y           Z
      1       H    1    0.000000   -0.000000    0.287772
      2       H    1   -0.000000    0.000000   -0.287772

  MBIS Quadrupoles: [e a0^2]
   Center  Symbol  Z      XX        XY        XZ        YY        YZ        ZZ
      1       H    1   -2.0586   -0.0000    0.0000   -2.0586   -0.0000   -4.6389
      2       H    1   -2.0586    0.0000    0.0000   -2.0586    0.0000   -4.6389

  MBIS Octupoles: [e a0^3]
   Center  Symbol  Z      XXX       XXY       XXZ       XYY       XYZ       XZZ       YYY       YYZ       YZZ       ZZZ
      1       H    1    0.0000   -0.0000    0.8759    0.0000   -0.0000    0.0000   -0.0000    0.8759    0.0000    2.2384
      2       H    1    0.0000    0.0000   -0.8759    0.0000   -0.0000    0.0000   -0.0000   -0.8759    0.0000   -2.2384

  MBIS Radial Moments:
   Center  Symbol  Z      [a0^2]      [a0^3]      [a0^4]
      1       H    1    8.756007   32.286069   135.324873
      2       H    1    8.756007   32.286069   135.324873

  MBIS Valence Widths: [a0]
   Center  Symbol  Z     Width
      1       H    1    0.659805
      2       H    1    0.659805

*** tstop() called on Mac.lan at Sun Aug 10 17:26:06 2025
Module time:
	user time   =       0.82 seconds =       0.01 minutes
	system time =       0.90 seconds =       0.02 minutes
	total time  =          0 seconds =       0.00 minutes
Total time:
	user time   =       2.12 seconds =       0.04 minutes
	system time =       2.81 seconds =       0.05 minutes
	total time  =          1 seconds =       0.02 minutes

    Psi4 stopped on: Sunday, 10 August 2025 05:26PM
    Psi4 wall time for execution: 0:00:00.82

*** Psi4 exiting successfully. Buy a developer a beer!
