                               Psi4 1.9.1 release

  ==> Input File <==

--------------------------------------------------------------------------
molecule {
-1 3
C           0.000000           0.000000           0.000000
H           0.000000           0.000000           0.781245
}

set {
basis              cc-pvtz
reference          uks
maxiter            500
DAMPING_PERCENTAGE 1
E_CONVERGENCE      1.0E-8
D_CONVERGENCE      1.0E-8
DIIS_MAX_VECS      400
MBIS_MAXITER       8000
guess              read
}

E, wfn = energy('b3lyp', restart_file='last_wfn', return_wfn=True)
properties('b3lyp','MBIS_CHARGES', wfn=wfn)
wfn.to_file('last_wfn')
--------------------------------------------------------------------------

    Molecular point group: c2v
  Charge       = -1
  Multiplicity = 3
  Basis Set: CC-PVTZ
    Blend: CC-PVTZ
  Basis Set: (CC-PVTZ AUX)
    Blend: CC-PVTZ-JKFIT
  @DF-UKS Final Energy:   -38.39897656975202
    Total Energy =                        -38.3989765697520156
 Dipole X            :          0.0000000            0.0000000            0.0000000
 Dipole Y            :          0.0000000            0.0000000            0.0000000
 Dipole Z            :          0.2108007            0.6756487            0.8864494
 Magnitude           :                                                    0.8864494
    Molecular point group: c2v

    Geometry (in Angstrom), charge = -1, multiplicity = 3:

       Center              X                  Y                   Z               Mass
    ------------   -----------------  -----------------  -----------------  -----------------
         C            0.000000000000     0.000000000000    -0.060529586257    12.000000000000
         H            0.000000000000     0.000000000000     0.720715413743     1.007825032230

  Charge       = -1
  Multiplicity = 3
  Basis Set: CC-PVTZ
    Blend: CC-PVTZ
  Basis Set: (CC-PVTZ AUX)
    Blend: CC-PVTZ-JKFIT

    Orbital Energies [Eh]
    ---------------------

    Alpha Occupied:

       1A1    -9.825922     2A1    -0.385516     3A1     0.023924
       1B1     0.094444     1B2     0.094444

    Alpha Virtual:

       4A1     0.298728     5A1     0.543262     2B1     0.577781
       2B2     0.577781     6A1     0.663478     7A1     0.909067
       3B1     0.943404     3B2     0.943404     8A1     0.971271
       1A2     0.971271     9A1     1.310082     4B1     1.386439
       4B2     1.386439    10A1     2.203522    11A1     2.282910
       5B1     2.288661     5B2     2.288661    12A1     2.557432
       2A2     2.939305    13A1     2.939305     6B2     3.005145
       6B1     3.005145     7B1     3.087674     7B2     3.087674
       3A2     3.255586    14A1     3.255586     8B1     3.371100
       8B2     3.371100    15A1     3.397626    16A1     4.161501
       4A2     4.322603    17A1     4.322603     9B1     4.377719
       9B2     4.377719    10B1     5.947245    10B2     5.947245
      18A1     5.959945    19A1     6.395580    20A1    13.401843

    Beta Occupied:

       1A1    -9.803376     2A1    -0.320813     3A1     0.066513

    Beta Virtual:

       1B2     0.249246     1B1     0.249246     4A1     0.303760
       5A1     0.560103     2B1     0.647056     2B2     0.647056
       6A1     0.699904     7A1     0.932393     3B1     0.980830
       3B2     0.980830     1A2     1.047862     8A1     1.047862
       9A1     1.330058     4B1     1.407698     4B2     1.407698
      10A1     2.242664    11A1     2.299798     5B1     2.365763
       5B2     2.365763    12A1     2.608149    13A1     2.995001
       2A2     2.995001     6B2     3.100060     6B1     3.100060
       7B1     3.133222     7B2     3.133222    14A1     3.363098
       3A2     3.363098     8B1     3.406949     8B2     3.406949
      15A1     3.429232    16A1     4.182675     4A2     4.359032
      17A1     4.359032     9B1     4.395395     9B2     4.395395
      10B1     5.979536    10B2     5.979536    18A1     5.981764
      19A1     6.406884    20A1    13.427632

    Final Occupation by Irrep:
             A1    A2    B1    B2
    DOCC [     3,    0,    0,    0 ]
    SOCC [     0,    0,    1,    1 ]
    NA   [     3,    0,    1,    1 ]
    NB   [     3,    0,    0,    0 ]

  @DF-UKS Final Energy:   -38.39897657213912

   => Energetics <=

    Nuclear Repulsion Energy =              4.0641069882303249
    One-Electron Energy =                 -61.3442153475388352
    Two-Electron Energy =                  23.7745653430324317
    DFT Exchange-Correlation Energy =      -4.8934335558630426
    Empirical Dispersion Energy =           0.0000000000000000
    VV10 Nonlocal Energy =                  0.0000000000000000
    Total Energy =                        -38.3989765721391194

  UHF NO Occupations:
  HONO-2 :    3 A1 1.9977520
  HONO-1 :    1 B2 1.0000000
  HONO-0 :    1 B1 1.0000000
  LUNO+0 :    4 A1 0.0022480
  LUNO+1 :    5 A1 0.0002027
  LUNO+2 :    6 A1 0.0000011
  LUNO+3 :    7 A1 0.0000000

Computation Completed

Properties will be evaluated at   0.000000,   0.000000,   0.000000 [a0]

Properties computed using the B3LYP density matrix

 Multipole Moments:

 ------------------------------------------------------------------------------------
     Multipole            Electronic (a.u.)      Nuclear  (a.u.)        Total (a.u.)
 ------------------------------------------------------------------------------------

 L = 1.  Multiply by 2.5417464519 to convert [e a0] to [Debye]
 Dipole X            :          0.0000000            0.0000000            0.0000000
 Dipole Y            :          0.0000000            0.0000000            0.0000000
 Dipole Z            :          0.2108007            0.6756487            0.8864494
 Magnitude           :                                                    0.8864494

 L = 2.  Multiply by 1.3450342976 to convert [e a0^2] to [Debye ang]
 Quadrupole XX       :         -7.7627124            0.0000000           -7.7627124
 Quadrupole XY       :          0.0000000            0.0000000            0.0000000
 Quadrupole XZ       :          0.0000000            0.0000000            0.0000000
 Quadrupole YY       :         -7.7627124            0.0000000           -7.7627124
 Quadrupole YZ       :          0.0000000            0.0000000            0.0000000
 Quadrupole ZZ       :         -9.7593431            1.9334234           -7.8259197
 Traceless XX        :          0.6655436           -0.6444745            0.0210691
 Traceless YY        :          0.6655436           -0.6444745            0.0210691
 Traceless ZZ        :         -1.3310871            1.2889489           -0.0421382

 ------------------------------------------------------------------------------------
  ==> Computing MBIS Charges <==

  Electron Count from Grid (Expected Number):  8.00000 ( 8.00000)
  Difference: -0.00000

  MBIS Charges: (a.u.)
   Center  Symbol  Z      Pop.       Charge
      1       C    6    7.199604   -1.199604
      2       H    1    0.800396    0.199604

  MBIS Dipoles: [e a0]
   Center  Symbol  Z        X           Y           Z
      1       C    6   -0.000000    0.000000    0.451195
      2       H    1    0.000000    0.000000    0.026186

  MBIS Quadrupoles: [e a0^2]
   Center  Symbol  Z      XX        XY        XZ        YY        YZ        ZZ
      1       C    6   -7.4815    0.0000    0.0000   -7.4815    0.0000   -7.8655
      2       H    1   -0.2812   -0.0000    0.0000   -0.2812    0.0000   -0.2831

  MBIS Octupoles: [e a0^3]
   Center  Symbol  Z      XXX       XXY       XXZ       XYY       XYZ       XZZ       YYY       YYZ       YZZ       ZZZ
      1       C    6   -0.0000    0.0000    1.1223   -0.0000   -0.0000   -0.0000    0.0000    1.1223   -0.0000    2.5857
      2       H    1   -0.0000   -0.0000    0.0056    0.0000    0.0000    0.0000   -0.0000    0.0056   -0.0000    0.0098

  MBIS Radial Moments:
   Center  Symbol  Z      [a0^2]      [a0^3]      [a0^4]
      1       C    6   22.828446   64.474827   212.339334
      2       H    1    0.845563    1.235168    2.170606

  MBIS Valence Widths: [a0]
   Center  Symbol  Z     Width
      1       C    6    0.594066
      2       H    1    0.299851

*** tstop() called on Mac.lan at Sun Aug 10 17:35:06 2025
Module time:
	user time   =       2.95 seconds =       0.05 minutes
	system time =       2.90 seconds =       0.05 minutes
	total time  =          1 seconds =       0.02 minutes
Total time:
	user time   =      12.72 seconds =       0.21 minutes
	system time =       4.29 seconds =       0.07 minutes
	total time  =          2 seconds =       0.03 minutes

    Psi4 stopped on: Sunday, 10 August 2025 05:35PM
    Psi4 wall time for execution: 0:00:01.67

*** Psi4 exiting successfully. Buy a developer a beer!
