                               Psi4 1.9.1 release

  ==> Input File <==

--------------------------------------------------------------------------
molecule {
-1 2
O           0.000000           0.000000           0.000000
C           0.000000           0.000000           1.116509
}

set {
basis              cc-pvtz
reference          uks
maxiter            500
DAMPING_PERCENTAGE 1
E_CONVERGENCE      1.0E-8
D_CONVERGENCE      1.0E-8
DIIS_MAX_VECS      400
MBIS_MAXITER       8000
guess              SAP
}

E, wfn = energy('b3lyp', return_wfn=True)
properties('b3lyp','MBIS_CHARGES', wfn=wfn)
wfn.to_file('last_wfn')
--------------------------------------------------------------------------

    Molecular point group: c2v
  Charge       = -1
  Multiplicity = 2
  Basis Set: CC-PVTZ
    Blend: CC-PVTZ
  Basis Set: (CC-PVTZ AUX)
    Blend: CC-PVTZ-JKFIT
  @DF-UKS Final Energy:  -113.26763852180223
    Total Energy =                       -113.2676385218022261
 Dipole X            :          0.0000000            0.0000000            0.0000000
 Dipole Y            :          0.0000000            0.0000000            0.0000000
 Dipole Z            :         -0.9352510           -0.0022996           -0.9375507
 Magnitude           :                                                    0.9375507
    Molecular point group: c2v

    Geometry (in Angstrom), charge = -1, multiplicity = 2:

       Center              X                  Y                   Z               Mass
    ------------   -----------------  -----------------  -----------------  -----------------
         O            0.000000000000     0.000000000000    -0.478590779149    15.994914619570
         C            0.000000000000     0.000000000000     0.637918220851    12.000000000000

  Charge       = -1
  Multiplicity = 2
  Basis Set: CC-PVTZ
    Blend: CC-PVTZ
  Basis Set: (CC-PVTZ AUX)
    Blend: CC-PVTZ-JKFIT

    Orbital Energies [Eh]
    ---------------------

    Alpha Occupied:

       1A1   -18.857812     2A1    -9.895953     3A1    -0.819296
       4A1    -0.246764     1B1    -0.158537     1B2    -0.143363
       5A1    -0.049997     2B1     0.206401

    Alpha Virtual:

       2B2     0.288501     6A1     0.406586     3B1     0.553759
       3B2     0.566634     7A1     0.571830     8A1     0.811384
       4B1     0.882868     4B2     0.886374     9A1     0.935802
       1A2     0.939043    10A1     0.942934     5B1     1.169423
       5B2     1.171856    11A1     1.415927    12A1     1.647277
       2A2     1.820296    13A1     1.821142     6B1     2.205042
       6B2     2.210562    14A1     2.240764     7B1     2.304134
       7B2     2.308399    15A1     2.784068     8B1     2.972289
       8B2     2.972728     3A2     3.160043    16A1     3.161645
       4A2     3.272165    17A1     3.275719     9B1     3.309627
       9B2     3.314279    18A1     3.419130    10B1     3.565913
      10B2     3.569546    19A1     3.731959    11B2     4.407639
      11B1     4.408001    20A1     4.804728    12B1     5.411264
      12B2     5.411310     5A2     5.832560    21A1     5.833145
      22A1     6.455526     6A2     6.562629    23A1     6.563714
      13B1     6.607552    13B2     6.607839    14B1     7.062408
      14B2     7.062836    24A1     7.078022    25A1     7.366267
      26A1    12.714288

    Beta Occupied:

       1A1   -18.849615     2A1    -9.887979     3A1    -0.805165
       4A1    -0.228057     1B2    -0.137081     1B1    -0.110753
       5A1    -0.024396

    Beta Virtual:

       2B2     0.298345     2B1     0.326716     6A1     0.410386
       3B2     0.572786     7A1     0.586660     3B1     0.595805
       8A1     0.817577     4B2     0.889218     4B1     0.903687
       9A1     0.948444     1A2     0.965793    10A1     0.970359
       5B2     1.173857     5B1     1.198301    11A1     1.422746
      12A1     1.658810     2A2     1.835811    13A1     1.835959
       6B2     2.213848     6B1     2.234925    14A1     2.255092
       7B2     2.314730     7B1     2.342018    15A1     2.793715
       8B2     3.005582     8B1     3.005657     3A2     3.180344
      16A1     3.180409    17A1     3.311644     4A2     3.312786
       9B2     3.315783     9B1     3.343138    18A1     3.431075
      10B2     3.573799    10B1     3.598126    19A1     3.743601
      11B2     4.411589    11B1     4.435174    20A1     4.815661
      12B2     5.428932    12B1     5.428936     5A2     5.846079
      21A1     5.846097    22A1     6.461736    23A1     6.590909
       6A2     6.591019    13B2     6.611174    13B1     6.633102
      14B2     7.065603    14B1     7.086159    24A1     7.092436
      25A1     7.375387    26A1    12.727171

    Final Occupation by Irrep:
             A1    A2    B1    B2
    DOCC [     5,    0,    1,    1 ]
    SOCC [     0,    0,    1,    0 ]
    NA   [     5,    0,    2,    1 ]
    NB   [     5,    0,    1,    1 ]

  @DF-UKS Final Energy:  -113.26763852180223

   => Energetics <=

    Nuclear Repulsion Energy =             22.7499340463534061
    One-Electron Energy =                -203.7502417490462108
    Two-Electron Energy =                  79.2443987250551629
    DFT Exchange-Correlation Energy =     -11.5117295441645986
    Empirical Dispersion Energy =           0.0000000000000000
    VV10 Nonlocal Energy =                  0.0000000000000000
    Total Energy =                       -113.2676385218022261

  UHF NO Occupations:
  HONO-2 :    1 B1 1.9995509
  HONO-1 :    5 A1 1.9994177
  HONO-0 :    2 B1 1.0000000
  LUNO+0 :    6 A1 0.0005823
  LUNO+1 :    3 B1 0.0004491
  LUNO+2 :    7 A1 0.0000569
  LUNO+3 :    2 B2 0.0000220

Computation Completed

Properties will be evaluated at   0.000000,   0.000000,   0.000000 [a0]

Properties computed using the B3LYP density matrix

 Multipole Moments:

 ------------------------------------------------------------------------------------
     Multipole            Electronic (a.u.)      Nuclear  (a.u.)        Total (a.u.)
 ------------------------------------------------------------------------------------

 L = 1.  Multiply by 2.5417464519 to convert [e a0] to [Debye]
 Dipole X            :          0.0000000            0.0000000            0.0000000
 Dipole Y            :          0.0000000            0.0000000            0.0000000
 Dipole Z            :         -0.9352510           -0.0022996           -0.9375507
 Magnitude           :                                                    0.9375507

 L = 2.  Multiply by 1.3450342976 to convert [e a0^2] to [Debye ang]
 Quadrupole XX       :        -11.4850965            0.0000000          -11.4850965
 Quadrupole XY       :          0.0000000            0.0000000            0.0000000
 Quadrupole XZ       :          0.0000000            0.0000000            0.0000000
 Quadrupole YY       :         -9.4880737            0.0000000           -9.4880737
 Quadrupole YZ       :          0.0000000            0.0000000            0.0000000
 Quadrupole ZZ       :        -28.7925496           15.2628418          -13.5297078
 Traceless XX        :          5.1034768           -5.0876139            0.0158628
 Traceless YY        :          7.1004995           -5.0876139            2.0128856
 Traceless ZZ        :        -12.2039763           10.1752279           -2.0287484

 ------------------------------------------------------------------------------------
  ==> Computing MBIS Charges <==

  Electron Count from Grid (Expected Number): 15.00000 (15.00000)
  Difference:  0.00000

  MBIS Charges: (a.u.)
   Center  Symbol  Z      Pop.       Charge
      1       O    8    8.254338   -0.254338
      2       C    6    6.745663   -0.745663

  MBIS Dipoles: [e a0]
   Center  Symbol  Z        X           Y           Z
      1       O    8    0.000000    0.000000    0.104599
      2       C    6   -0.000000    0.000000   -0.373284

  MBIS Quadrupoles: [e a0^2]
   Center  Symbol  Z      XX        XY        XZ        YY        YZ        ZZ
      1       O    8   -3.9107   -0.0000   -0.0000   -3.6938    0.0000   -4.1132
      2       C    6   -7.5744    0.0000    0.0000   -5.7942    0.0000   -7.0357

  MBIS Octupoles: [e a0^3]
   Center  Symbol  Z      XXX       XXY       XXZ       XYY       XYZ       XZZ       YYY       YYZ       YZZ       ZZZ
      1       O    8   -0.0000    0.0000    0.1332   -0.0000   -0.0000    0.0000   -0.0000    0.1799    0.0000    0.2519
      2       C    6   -0.0000    0.0000   -1.4356   -0.0000    0.0000   -0.0000    0.0000   -0.4204    0.0000   -0.3985

  MBIS Radial Moments:
   Center  Symbol  Z      [a0^2]      [a0^3]      [a0^4]
      1       O    8   11.717682   22.052579   49.915925
      2       C    6   20.404379   57.288735   188.525002

  MBIS Valence Widths: [a0]
   Center  Symbol  Z     Width
      1       O    8    0.385027
      2       C    6    0.585410

*** tstop() called on Mac.lan at Sun Aug 10 17:42:53 2025
Module time:
	user time   =      18.02 seconds =       0.30 minutes
	system time =       2.03 seconds =       0.03 minutes
	total time  =          2 seconds =       0.03 minutes
Total time:
	user time   =      36.37 seconds =       0.61 minutes
	system time =       4.59 seconds =       0.08 minutes
	total time  =          4 seconds =       0.07 minutes

    Psi4 stopped on: Sunday, 10 August 2025 05:42PM
    Psi4 wall time for execution: 0:00:03.89

*** Psi4 exiting successfully. Buy a developer a beer!
