                               Psi4 1.9.1 release

  ==> Input File <==

--------------------------------------------------------------------------
molecule {
-1 2
O           0.000000           0.000000           0.000000
C           0.000000           0.000000           1.833820
}

set {
basis              cc-pvtz
reference          uks
maxiter            500
DAMPING_PERCENTAGE 1
E_CONVERGENCE      1.0E-8
D_CONVERGENCE      1.0E-8
DIIS_MAX_VECS      400
MBIS_MAXITER       8000
guess              read
}

E, wfn = energy('b3lyp', restart_file='last_wfn', return_wfn=True)
properties('b3lyp','MBIS_CHARGES', wfn=wfn)
wfn.to_file('last_wfn')
--------------------------------------------------------------------------

    Molecular point group: c2v
  Charge       = -1
  Multiplicity = 2
  Basis Set: CC-PVTZ
    Blend: CC-PVTZ
  Basis Set: (CC-PVTZ AUX)
    Blend: CC-PVTZ-JKFIT
  @DF-UKS Final Energy:  -113.13254733997044
    Total Energy =                       -113.1325473399704435
 Dipole X            :          0.0000000            0.0000000            0.0000000
 Dipole Y            :          0.0000000            0.0000000            0.0000000
 Dipole Z            :         -0.1595562           -0.0037770           -0.1633333
 Magnitude           :                                                    0.1633333
    Molecular point group: c2v

    Geometry (in Angstrom), charge = -1, multiplicity = 2:

       Center              X                  Y                   Z               Mass
    ------------   -----------------  -----------------  -----------------  -----------------
         O            0.000000000000     0.000000000000    -0.786065622955    15.994914619570
         C            0.000000000000     0.000000000000     1.047754377045    12.000000000000

  Charge       = -1
  Multiplicity = 2
  Basis Set: CC-PVTZ
    Blend: CC-PVTZ
  Basis Set: (CC-PVTZ AUX)
    Blend: CC-PVTZ-JKFIT

    Orbital Energies [Eh]
    ---------------------

    Alpha Occupied:

       1A1   -18.848180     2A1   -10.011367     3A1    -0.575113
       4A1    -0.284001     5A1    -0.031472     1B1    -0.028963
       1B2     0.007652     2B1     0.056004

    Alpha Virtual:

       2B2     0.146666     6A1     0.261938     7A1     0.535106
       3B1     0.536521     3B2     0.543065     8A1     0.613544
       9A1     0.842189     4B1     0.870831     4B2     0.882261
       1A2     0.916200    10A1     0.917137     5B1     1.018006
       5B2     1.018464    11A1     1.182913    12A1     1.499217
       2A2     1.793378    13A1     1.794987     6B1     1.883315
       6B2     1.886163    14A1     1.960781     7B1     2.217018
       7B2     2.225207    15A1     2.598179     8B1     2.922305
       8B2     2.922492     3A2     2.942008    16A1     2.943024
       9B2     3.043246     9B1     3.043959    17A1     3.104146
       4A2     3.180962    18A1     3.183307    10B1     3.321603
      10B2     3.326024    19A1     3.452323    11B1     3.940360
      11B2     3.959218    20A1     4.039553    21A1     4.512551
      12B1     5.456237     5A2     5.456510    12B2     5.456607
      22A1     5.458099    13B1     5.551951    13B2     5.553019
      23A1     5.724037     6A2     6.524203    24A1     6.528365
      14B1     6.679090    14B2     6.692884    25A1     6.995046
      26A1     8.381403

    Beta Occupied:

       1A1   -18.860482     2A1    -9.990606     3A1    -0.607803
       4A1    -0.217135     1B2    -0.049016     5A1    -0.032585
       1B1    -0.006184

    Beta Virtual:

       2B2     0.178619     2B1     0.202430     6A1     0.276905
       7A1     0.548411     3B2     0.579894     3B1     0.595943
       8A1     0.643919     9A1     0.839455     4B2     0.857117
       4B1     0.880759     1A2     0.972683    10A1     0.972728
       5B2     1.028491     5B1     1.044348    11A1     1.195064
      12A1     1.491467     2A2     1.772864    13A1     1.773058
       6B2     1.868732     6B1     1.892326    14A1     1.963088
       7B2     2.270213     7B1     2.292653    15A1     2.621922
      16A1     2.995405     3A2     2.995625     8B2     2.997496
       8B1     2.997582     9B2     3.075045     9B1     3.094298
      17A1     3.123346    18A1     3.276951     4A2     3.277342
      10B2     3.361224    10B1     3.382635    19A1     3.480395
      11B2     3.901812    11B1     3.941186    20A1     4.072769
      21A1     4.509273    12B2     5.427219    12B1     5.427487
      22A1     5.433314     5A2     5.434015    13B2     5.518653
      13B1     5.548662    23A1     5.707778    24A1     6.485907
       6A2     6.486327    14B2     6.637966    14B1     6.674977
      25A1     6.975175    26A1     8.358137

    Final Occupation by Irrep:
             A1    A2    B1    B2
    DOCC [     5,    0,    1,    1 ]
    SOCC [     0,    0,    1,    0 ]
    NA   [     5,    0,    2,    1 ]
    NB   [     5,    0,    1,    1 ]

  @DF-UKS Final Energy:  -113.13254734074229

   => Energetics <=

    Nuclear Repulsion Energy =             13.8511446664121873
    One-Electron Energy =                -186.3742333766297747
    Two-Electron Energy =                  70.6612978374714231
    DFT Exchange-Correlation Energy =     -11.2707564679961187
    Empirical Dispersion Energy =           0.0000000000000000
    VV10 Nonlocal Energy =                  0.0000000000000000
    Total Energy =                       -113.1325473407422919

  UHF NO Occupations:
  HONO-2 :    5 A1 1.9943978
  HONO-1 :    1 B2 1.8282685
  HONO-0 :    2 B1 1.0000000
  LUNO+0 :    2 B2 0.1717315
  LUNO+1 :    6 A1 0.0056022
  LUNO+2 :    7 A1 0.0007326
  LUNO+3 :    3 B1 0.0003604

Computation Completed

Properties will be evaluated at   0.000000,   0.000000,   0.000000 [a0]

Properties computed using the B3LYP density matrix

 Multipole Moments:

 ------------------------------------------------------------------------------------
     Multipole            Electronic (a.u.)      Nuclear  (a.u.)        Total (a.u.)
 ------------------------------------------------------------------------------------

 L = 1.  Multiply by 2.5417464519 to convert [e a0] to [Debye]
 Dipole X            :          0.0000000            0.0000000            0.0000000
 Dipole Y            :          0.0000000            0.0000000            0.0000000
 Dipole Z            :         -0.1595561           -0.0037770           -0.1633332
 Magnitude           :                                                    0.1633332

 L = 2.  Multiply by 1.3450342976 to convert [e a0^2] to [Debye ang]
 Quadrupole XX       :        -11.1967980            0.0000000          -11.1967980
 Quadrupole XY       :          0.0000000            0.0000000            0.0000000
 Quadrupole XZ       :          0.0000000            0.0000000            0.0000000
 Quadrupole YY       :        -10.0970298            0.0000000          -10.0970298
 Quadrupole YZ       :          0.0000000            0.0000000            0.0000000
 Quadrupole ZZ       :        -55.6941017           41.1741229          -14.5199788
 Traceless XX        :         14.4658452          -13.7247076            0.7411375
 Traceless YY        :         15.5656133          -13.7247076            1.8409057
 Traceless ZZ        :        -30.0314585           27.4494153           -2.5820432

 ------------------------------------------------------------------------------------
  ==> Computing MBIS Charges <==

  Electron Count from Grid (Expected Number): 15.00000 (15.00000)
  Difference:  0.00000

  MBIS Charges: (a.u.)
   Center  Symbol  Z      Pop.       Charge
      1       O    8    8.578975   -0.578975
      2       C    6    6.421026   -0.421026

  MBIS Dipoles: [e a0]
   Center  Symbol  Z        X           Y           Z
      1       O    8    0.000000   -0.000000    0.033109
      2       C    6   -0.000000    0.000000   -0.222861

  MBIS Quadrupoles: [e a0^2]
   Center  Symbol  Z      XX        XY        XZ        YY        YZ        ZZ
      1       O    8   -4.9216    0.0000   -0.0000   -4.5253    0.0000   -4.6004
      2       C    6   -6.2752    0.0000    0.0000   -5.5718    0.0000   -6.0106

  MBIS Octupoles: [e a0^3]
   Center  Symbol  Z      XXX       XXY       XXZ       XYY       XYZ       XZZ       YYY       YYZ       YZZ       ZZZ
      1       O    8   -0.0000   -0.0000    0.0326   -0.0000   -0.0000   -0.0000   -0.0000   -0.0583   -0.0000   -0.1430
      2       C    6   -0.0000   -0.0000   -0.2751   -0.0000    0.0000    0.0000    0.0000   -0.0511    0.0000    0.2045

  MBIS Radial Moments:
   Center  Symbol  Z      [a0^2]      [a0^3]      [a0^4]
      1       O    8   14.047316   28.404891   68.464627
      2       C    6   17.857529   48.133902   152.907884

  MBIS Valence Widths: [a0]
   Center  Symbol  Z     Width
      1       O    8    0.412527
      2       C    6    0.567032

*** tstop() called on Mac.lan at Sun Aug 10 17:44:05 2025
Module time:
	user time   =       3.33 seconds =       0.06 minutes
	system time =       2.55 seconds =       0.04 minutes
	total time  =          1 seconds =       0.02 minutes
Total time:
	user time   =      22.57 seconds =       0.38 minutes
	system time =       4.68 seconds =       0.08 minutes
	total time  =          3 seconds =       0.05 minutes

    Psi4 stopped on: Sunday, 10 August 2025 05:44PM
    Psi4 wall time for execution: 0:00:02.61

*** Psi4 exiting successfully. Buy a developer a beer!
