                               Psi4 1.9.1 release

  ==> Input File <==

--------------------------------------------------------------------------
molecule {
-1 3
C           0.000000           0.000000           0.000000
H           0.000000           0.000000           1.240594
}

set {
basis              cc-pvtz
reference          uks
maxiter            500
DAMPING_PERCENTAGE 1
E_CONVERGENCE      1.0E-8
D_CONVERGENCE      1.0E-8
DIIS_MAX_VECS      400
MBIS_MAXITER       8000
guess              read
}

E, wfn = energy('b3lyp', restart_file='last_wfn', return_wfn=True)
properties('b3lyp','MBIS_CHARGES', wfn=wfn)
wfn.to_file('last_wfn')
--------------------------------------------------------------------------

    Molecular point group: c2v
  Charge       = -1
  Multiplicity = 3
  Basis Set: CC-PVTZ
    Blend: CC-PVTZ
  Basis Set: (CC-PVTZ AUX)
    Blend: CC-PVTZ-JKFIT
  @DF-UKS Final Energy:   -38.52464665419138
    Total Energy =                        -38.5246466541913790
 Dipole X            :          0.0000000            0.0000000            0.0000000
 Dipole Y            :          0.0000000            0.0000000            0.0000000
 Dipole Z            :         -0.8360916            1.0729102            0.2368186
 Magnitude           :                                                    0.2368186
    Molecular point group: c2v

    Geometry (in Angstrom), charge = -1, multiplicity = 3:

       Center              X                  Y                   Z               Mass
    ------------   -----------------  -----------------  -----------------  -----------------
         C            0.000000000000     0.000000000000    -0.096119196325    12.000000000000
         H            0.000000000000     0.000000000000     1.144474803675     1.007825032230

  Charge       = -1
  Multiplicity = 3
  Basis Set: CC-PVTZ
    Blend: CC-PVTZ
  Basis Set: (CC-PVTZ AUX)
    Blend: CC-PVTZ-JKFIT

    Orbital Energies [Eh]
    ---------------------

    Alpha Occupied:

       1A1    -9.890878     2A1    -0.289986     3A1     0.005852
       1B2     0.082617     1B1     0.082617

    Alpha Virtual:

       4A1     0.288309     5A1     0.538255     2B2     0.571332
       2B1     0.571332     6A1     0.626100     7A1     0.708774
       3B2     0.860842     3B1     0.860842     8A1     0.962471
       1A2     0.962471     9A1     1.226158     4B1     1.289738
       4B2     1.289738    10A1     1.562321     5B1     2.275792
       5B2     2.275792    11A1     2.441517    12A1     2.620717
       2A2     2.877973    13A1     2.877973     6B2     2.927841
       6B1     2.927841     7B2     2.988907     7B1     2.988907
      14A1     3.152732    15A1     3.255572     3A2     3.255572
       8B2     3.392658     8B1     3.392658    16A1     3.437823
       4A2     3.771312    17A1     3.771313     9B2     4.062267
       9B1     4.062267    18A1     4.426825    10B2     4.731735
      10B1     4.731735    19A1     4.819129    20A1     7.356369

    Beta Occupied:

       1A1    -9.867189     2A1    -0.216418     3A1     0.037640

    Beta Virtual:

       1B2     0.240197     1B1     0.240197     4A1     0.297627
       5A1     0.552797     2B2     0.642561     2B1     0.642561
       6A1     0.645585     7A1     0.748529     3B2     0.886631
       3B1     0.886631     8A1     1.038947     1A2     1.038947
       9A1     1.250030     4B1     1.314205     4B2     1.314205
      10A1     1.577493     5B2     2.355034     5B1     2.355034
      11A1     2.460924    12A1     2.641806     2A2     2.927669
      13A1     2.927669     6B2     2.966373     6B1     2.966373
       7B2     3.084754     7B1     3.084754    14A1     3.186116
      15A1     3.374799     3A2     3.374799     8B2     3.446642
       8B1     3.446642    16A1     3.467372     4A2     3.787422
      17A1     3.787423     9B2     4.060980     9B1     4.060980
      18A1     4.443873    10B2     4.751534    10B1     4.751534
      19A1     4.826040    20A1     7.385084

    Final Occupation by Irrep:
             A1    A2    B1    B2
    DOCC [     3,    0,    0,    0 ]
    SOCC [     0,    0,    1,    1 ]
    NA   [     3,    0,    1,    1 ]
    NB   [     3,    0,    0,    0 ]

  @DF-UKS Final Energy:   -38.52464665442199

   => Energetics <=

    Nuclear Repulsion Energy =              2.5593088988178252
    One-Electron Energy =                 -58.6949791220771431
    Two-Electron Energy =                  22.3504523566567599
    DFT Exchange-Correlation Energy =      -4.7394287878194259
    Empirical Dispersion Energy =           0.0000000000000000
    VV10 Nonlocal Energy =                  0.0000000000000000
    Total Energy =                        -38.5246466544219857

  UHF NO Occupations:
  HONO-2 :    3 A1 1.9975310
  HONO-1 :    1 B1 1.0000000
  HONO-0 :    1 B2 1.0000000
  LUNO+0 :    4 A1 0.0024690
  LUNO+1 :    5 A1 0.0005116
  LUNO+2 :    6 A1 0.0000011
  LUNO+3 :    7 A1 0.0000000

Computation Completed

Properties will be evaluated at   0.000000,   0.000000,   0.000000 [a0]

Properties computed using the B3LYP density matrix

 Multipole Moments:

 ------------------------------------------------------------------------------------
     Multipole            Electronic (a.u.)      Nuclear  (a.u.)        Total (a.u.)
 ------------------------------------------------------------------------------------

 L = 1.  Multiply by 2.5417464519 to convert [e a0] to [Debye]
 Dipole X            :          0.0000000            0.0000000            0.0000000
 Dipole Y            :          0.0000000            0.0000000            0.0000000
 Dipole Z            :         -0.8360916            1.0729102            0.2368186
 Magnitude           :                                                    0.2368186

 L = 2.  Multiply by 1.3450342976 to convert [e a0^2] to [Debye ang]
 Quadrupole XX       :         -8.0739620            0.0000000           -8.0739620
 Quadrupole XY       :          0.0000000            0.0000000            0.0000000
 Quadrupole XZ       :          0.0000000            0.0000000            0.0000000
 Quadrupole YY       :         -8.0739620            0.0000000           -8.0739620
 Quadrupole YZ       :          0.0000000            0.0000000            0.0000000
 Quadrupole ZZ       :        -13.8606622            4.8754176           -8.9852446
 Traceless XX        :          1.9289001           -1.6251392            0.3037609
 Traceless YY        :          1.9289001           -1.6251392            0.3037609
 Traceless ZZ        :         -3.8578001            3.2502784           -0.6075217

 ------------------------------------------------------------------------------------
  ==> Computing MBIS Charges <==

  Electron Count from Grid (Expected Number):  8.00000 ( 8.00000)
  Difference:  0.00000

  MBIS Charges: (a.u.)
   Center  Symbol  Z      Pop.       Charge
      1       C    6    6.929191   -0.929191
      2       H    1    1.070809   -0.070809

  MBIS Dipoles: [e a0]
   Center  Symbol  Z        X           Y           Z
      1       C    6   -0.000000   -0.000000    0.229090
      2       H    1    0.000000   -0.000000   -0.007906

  MBIS Quadrupoles: [e a0^2]
   Center  Symbol  Z      XX        XY        XZ        YY        YZ        ZZ
      1       C    6   -7.1403    0.0000   -0.0000   -7.1403   -0.0000   -7.4904
      2       H    1   -0.9337   -0.0000   -0.0000   -0.9337   -0.0000   -1.0156

  MBIS Octupoles: [e a0^3]
   Center  Symbol  Z      XXX       XXY       XXZ       XYY       XYZ       XZZ       YYY       YYZ       YZZ       ZZZ
      1       C    6   -0.0000   -0.0000    0.2472   -0.0000   -0.0000    0.0000   -0.0000    0.2472   -0.0000   -0.6871
      2       H    1    0.0000   -0.0000   -0.0797   -0.0000   -0.0000    0.0000   -0.0000   -0.0797   -0.0000   -0.2147

  MBIS Radial Moments:
   Center  Symbol  Z      [a0^2]      [a0^3]      [a0^4]
      1       C    6   21.770987   62.053086   208.761007
      2       H    1    2.882897    6.901855   19.706679

  MBIS Valence Widths: [a0]
   Center  Symbol  Z     Width
      1       C    6    0.594622
      2       H    1    0.470760

*** tstop() called on Mac.lan at Sun Aug 10 17:35:58 2025
Module time:
	user time   =       3.24 seconds =       0.05 minutes
	system time =       2.16 seconds =       0.04 minutes
	total time  =          1 seconds =       0.02 minutes
Total time:
	user time   =      13.32 seconds =       0.22 minutes
	system time =       4.31 seconds =       0.07 minutes
	total time  =          2 seconds =       0.03 minutes

    Psi4 stopped on: Sunday, 10 August 2025 05:35PM
    Psi4 wall time for execution: 0:00:01.71

*** Psi4 exiting successfully. Buy a developer a beer!
