                               Psi4 1.9.1 release

  ==> Input File <==

--------------------------------------------------------------------------
molecule {
-1 2
H           0.000000           0.000000           0.000000
H           0.000000           0.000000           1.608986
}

set {
basis              cc-pvtz
reference          uks
maxiter            500
DAMPING_PERCENTAGE 1
E_CONVERGENCE      1.0E-8
D_CONVERGENCE      1.0E-8
DIIS_MAX_VECS      400
MBIS_MAXITER       8000
guess              read
}

E, wfn = energy('b3lyp', restart_file='last_wfn', return_wfn=True)
properties('b3lyp','MBIS_CHARGES', wfn=wfn)
wfn.to_file('last_wfn')
--------------------------------------------------------------------------

    Molecular point group: d2h
  Charge       = -1
  Multiplicity = 2
  Basis Set: CC-PVTZ
    Blend: CC-PVTZ
  Basis Set: (CC-PVTZ AUX)
    Blend: CC-PVTZ-JKFIT
  @DF-UKS Final Energy:    -1.05663364940404
    Total Energy =                         -1.0566336494040440
 Dipole X            :          0.0000000            0.0000000            0.0000000
 Dipole Y            :          0.0000000            0.0000000            0.0000000
 Dipole Z            :          0.0000000            0.0000000            0.0000000
 Magnitude           :                                                    0.0000000
    Molecular point group: d2h

    Geometry (in Angstrom), charge = -1, multiplicity = 2:

       Center              X                  Y                   Z               Mass
    ------------   -----------------  -----------------  -----------------  -----------------
         H            0.000000000000     0.000000000000    -0.804493000000     1.007825032230
         H            0.000000000000     0.000000000000     0.804493000000     1.007825032230

  Charge       = -1
  Multiplicity = 2
  Basis Set: CC-PVTZ
    Blend: CC-PVTZ
  Basis Set: (CC-PVTZ AUX)
    Blend: CC-PVTZ-JKFIT

    Orbital Energies [Eh]
    ---------------------

    Alpha Occupied:

       1Ag    -0.034104     1B1u    0.103160

    Alpha Virtual:

       2Ag     0.503565     2B1u    0.534848     1B2u    0.807403
       1B3u    0.807403     3Ag     0.894778     1B3g    1.020916
       1B2g    1.020916     3B1u    1.387401     4Ag     2.479534
       4B1u    2.660785     5Ag     3.224861     2B2u    3.280233
       2B3u    3.280233     1B1g    3.469125     6Ag     3.469125
       1Au     3.544194     5B1u    3.544195     2B3g    3.740669
       2B2g    3.740669     3B3u    3.882302     3B2u    3.882302
       6B1u    3.934489     3B3g    4.054399     3B2g    4.054399
       7Ag     4.174553     7B1u    4.884304

    Beta Occupied:

       1Ag     0.022256

    Beta Virtual:

       1B1u    0.216183     2Ag     0.529290     2B1u    0.584658
       1B2u    0.834338     1B3u    0.834338     3Ag     0.932909
       1B2g    1.063382     1B3g    1.063382     3B1u    1.431443
       4Ag     2.554264     4B1u    2.731912     5Ag     3.260472
       2B2u    3.324247     2B3u    3.324247     6Ag     3.516039
       1B1g    3.516039     5B1u    3.592144     1Au     3.592144
       2B3g    3.783412     2B2g    3.783412     3B2u    3.944150
       3B3u    3.944150     6B1u    3.988904     3B3g    4.120780
       3B2g    4.120780     7Ag     4.235712     7B1u    4.936301

    Final Occupation by Irrep:
             Ag   B1g   B2g   B3g    Au   B1u   B2u   B3u
    DOCC [     1,    0,    0,    0,    0,    0,    0,    0 ]
    SOCC [     0,    0,    0,    0,    0,    1,    0,    0 ]
    NA   [     1,    0,    0,    0,    0,    1,    0,    0 ]
    NB   [     1,    0,    0,    0,    0,    0,    0,    0 ]

  @DF-UKS Final Energy:    -1.05663364905148

   => Energetics <=

    Nuclear Repulsion Energy =              0.3288886358675589
    One-Electron Energy =                  -2.3785080312166977
    Two-Electron Energy =                   1.6588728195504276
    DFT Exchange-Correlation Energy =      -0.6658870732527726
    Empirical Dispersion Energy =           0.0000000000000000
    VV10 Nonlocal Energy =                  0.0000000000000000
    Total Energy =                         -1.0566336490514840

  UHF NO Occupations:
  HONO-1 :    1 Ag 1.9974942
  HONO-0 :    1B1u 1.0000000
  LUNO+0 :    2 Ag 0.0025058
  LUNO+1 :    2B1u 0.0000000
  LUNO+2 :    3 Ag 0.0000000
  LUNO+3 :    4 Ag 0.0000000

Computation Completed

Properties will be evaluated at   0.000000,   0.000000,   0.000000 [a0]

Properties computed using the B3LYP density matrix

 Multipole Moments:

 ------------------------------------------------------------------------------------
     Multipole            Electronic (a.u.)      Nuclear  (a.u.)        Total (a.u.)
 ------------------------------------------------------------------------------------

 L = 1.  Multiply by 2.5417464519 to convert [e a0] to [Debye]
 Dipole X            :          0.0000000            0.0000000            0.0000000
 Dipole Y            :          0.0000000            0.0000000            0.0000000
 Dipole Z            :          0.0000000            0.0000000            0.0000000
 Magnitude           :                                                    0.0000000

 L = 2.  Multiply by 1.3450342976 to convert [e a0^2] to [Debye ang]
 Quadrupole XX       :         -4.3840411            0.0000000           -4.3840411
 Quadrupole XY       :          0.0000000            0.0000000            0.0000000
 Quadrupole XZ       :          0.0000000            0.0000000            0.0000000
 Quadrupole YY       :         -4.3840411            0.0000000           -4.3840411
 Quadrupole YZ       :          0.0000000            0.0000000            0.0000000
 Quadrupole ZZ       :        -12.4787490            4.6224505           -7.8562985
 Traceless XX        :          2.6982360           -1.5408168            1.1574191
 Traceless YY        :          2.6982360           -1.5408168            1.1574191
 Traceless ZZ        :         -5.3964719            3.0816337           -2.3148382

 ------------------------------------------------------------------------------------
  ==> Computing MBIS Charges <==

  Electron Count from Grid (Expected Number):  3.00000 ( 3.00000)
  Difference: -0.00000

  MBIS Charges: (a.u.)
   Center  Symbol  Z      Pop.       Charge
      1       H    1    1.500000   -0.500000
      2       H    1    1.500000   -0.500000

  MBIS Dipoles: [e a0]
   Center  Symbol  Z        X           Y           Z
      1       H    1    0.000000    0.000000    0.139037
      2       H    1    0.000000   -0.000000   -0.139037

  MBIS Quadrupoles: [e a0^2]
   Center  Symbol  Z      XX        XY        XZ        YY        YZ        ZZ
      1       H    1   -2.1920   -0.0000    0.0000   -2.1920    0.0000   -2.3498
      2       H    1   -2.1920   -0.0000    0.0000   -2.1920    0.0000   -2.3498

  MBIS Octupoles: [e a0^3]
   Center  Symbol  Z      XXX       XXY       XXZ       XYY       XYZ       XZZ       YYY       YYZ       YZZ       ZZZ
      1       H    1    0.0000    0.0000    0.2562    0.0000    0.0000    0.0000   -0.0000    0.2562    0.0000    0.4331
      2       H    1   -0.0000    0.0000   -0.2562    0.0000   -0.0000   -0.0000    0.0000   -0.2562   -0.0000   -0.4331

  MBIS Radial Moments:
   Center  Symbol  Z      [a0^2]      [a0^3]      [a0^4]
      1       H    1    6.733828   20.143706   70.076051
      2       H    1    6.733828   20.143706   70.076051

  MBIS Valence Widths: [a0]
   Center  Symbol  Z     Width
      1       H    1    0.611995
      2       H    1    0.611995

*** tstop() called on Mac.lan at Sun Aug 10 17:26:34 2025
Module time:
	user time   =       0.55 seconds =       0.01 minutes
	system time =       1.28 seconds =       0.02 minutes
	total time  =          0 seconds =       0.00 minutes
Total time:
	user time   =       1.83 seconds =       0.03 minutes
	system time =       2.94 seconds =       0.05 minutes
	total time  =          0 seconds =       0.00 minutes

    Psi4 stopped on: Sunday, 10 August 2025 05:26PM
    Psi4 wall time for execution: 0:00:00.67

*** Psi4 exiting successfully. Buy a developer a beer!
