                               Psi4 1.9.1 release

  ==> Input File <==

--------------------------------------------------------------------------
molecule {
-1 3
C           0.000000           0.000000           0.000000
H           0.000000           0.000000           1.078471
}

set {
basis              cc-pvtz
reference          uks
maxiter            500
DAMPING_PERCENTAGE 1
E_CONVERGENCE      1.0E-8
D_CONVERGENCE      1.0E-8
DIIS_MAX_VECS      400
MBIS_MAXITER       8000
guess              read
}

E, wfn = energy('b3lyp', restart_file='last_wfn', return_wfn=True)
properties('b3lyp','MBIS_CHARGES', wfn=wfn)
wfn.to_file('last_wfn')
--------------------------------------------------------------------------

    Molecular point group: c2v
  Charge       = -1
  Multiplicity = 3
  Basis Set: CC-PVTZ
    Blend: CC-PVTZ
  Basis Set: (CC-PVTZ AUX)
    Blend: CC-PVTZ-JKFIT
  @DF-UKS Final Energy:   -38.52480921455145
    Total Energy =                        -38.5248092145514462
 Dipole X            :          0.0000000            0.0000000            0.0000000
 Dipole Y            :          0.0000000            0.0000000            0.0000000
 Dipole Z            :         -0.4215323            0.9327004            0.5111681
 Magnitude           :                                                    0.5111681
    Molecular point group: c2v

    Geometry (in Angstrom), charge = -1, multiplicity = 3:

       Center              X                  Y                   Z               Mass
    ------------   -----------------  -----------------  -----------------  -----------------
         C            0.000000000000     0.000000000000    -0.083558171150    12.000000000000
         H            0.000000000000     0.000000000000     0.994912828850     1.007825032230

  Charge       = -1
  Multiplicity = 3
  Basis Set: CC-PVTZ
    Blend: CC-PVTZ
  Basis Set: (CC-PVTZ AUX)
    Blend: CC-PVTZ-JKFIT

    Orbital Energies [Eh]
    ---------------------

    Alpha Occupied:

       1A1    -9.867393     2A1    -0.314992     3A1     0.012891
       1B2     0.089024     1B1     0.089024

    Alpha Virtual:

       4A1     0.296059     5A1     0.542118     2B1     0.576096
       2B2     0.576096     6A1     0.645579     7A1     0.733106
       3B1     0.886122     3B2     0.886122     8A1     0.966894
       1A2     0.966894     9A1     1.257755     4B2     1.331478
       4B1     1.331478    10A1     1.745651     5B1     2.298419
       5B2     2.298419    11A1     2.349083    12A1     2.523761
      13A1     2.872060     2A2     2.872060     6B1     2.983158
       6B2     2.983158     7B1     2.996564     7B2     2.996564
      14A1     3.268008     3A2     3.268008    15A1     3.275714
       8B2     3.405444     8B1     3.405444    16A1     3.633503
      17A1     3.928965     4A2     3.928966     9B2     4.140030
       9B1     4.140030    18A1     4.940089    10B2     5.118145
      10B1     5.118145    19A1     5.176101    20A1     8.831463

    Beta Occupied:

       1A1    -9.844329     2A1    -0.246278     3A1     0.049489

    Beta Virtual:

       1B2     0.244814     1B1     0.244814     4A1     0.302446
       5A1     0.559292     2B1     0.646763     2B2     0.646763
       6A1     0.677810     7A1     0.758130     3B1     0.916482
       3B2     0.916482     1A2     1.043399     8A1     1.043399
       9A1     1.280904     4B2     1.355132     4B1     1.355132
      10A1     1.769789    11A1     2.366516     5B1     2.378015
       5B2     2.378015    12A1     2.557029    13A1     2.921296
       2A2     2.921296     6B1     3.023902     6B2     3.023902
       7B1     3.092025     7B2     3.092025    14A1     3.310178
      15A1     3.384624     3A2     3.384624     8B2     3.450983
       8B1     3.450983    16A1     3.657604    17A1     3.951540
       4A2     3.951541     9B2     4.143201     9B1     4.143201
      18A1     4.953403    10B2     5.143766    10B1     5.143766
      19A1     5.187846    20A1     8.859616

    Final Occupation by Irrep:
             A1    A2    B1    B2
    DOCC [     3,    0,    0,    0 ]
    SOCC [     0,    0,    1,    1 ]
    NA   [     3,    0,    1,    1 ]
    NB   [     3,    0,    0,    0 ]

  @DF-UKS Final Energy:   -38.52480921548326

   => Energetics <=

    Nuclear Repulsion Energy =              2.9440413919521249
    One-Electron Energy =                 -59.4592166092411745
    Two-Electron Energy =                  22.7709020978322378
    DFT Exchange-Correlation Energy =      -4.7805360960264522
    Empirical Dispersion Energy =           0.0000000000000000
    VV10 Nonlocal Energy =                  0.0000000000000000
    Total Energy =                        -38.5248092154832591

  UHF NO Occupations:
  HONO-2 :    3 A1 1.9976827
  HONO-1 :    1 B1 1.0000000
  HONO-0 :    1 B2 1.0000000
  LUNO+0 :    4 A1 0.0023173
  LUNO+1 :    5 A1 0.0003482
  LUNO+2 :    6 A1 0.0000011
  LUNO+3 :    7 A1 0.0000000

Computation Completed

Properties will be evaluated at   0.000000,   0.000000,   0.000000 [a0]

Properties computed using the B3LYP density matrix

 Multipole Moments:

 ------------------------------------------------------------------------------------
     Multipole            Electronic (a.u.)      Nuclear  (a.u.)        Total (a.u.)
 ------------------------------------------------------------------------------------

 L = 1.  Multiply by 2.5417464519 to convert [e a0] to [Debye]
 Dipole X            :          0.0000000            0.0000000            0.0000000
 Dipole Y            :          0.0000000            0.0000000            0.0000000
 Dipole Z            :         -0.4215323            0.9327004            0.5111681
 Magnitude           :                                                    0.5111681

 L = 2.  Multiply by 1.3450342976 to convert [e a0^2] to [Debye ang]
 Quadrupole XX       :         -7.9672750            0.0000000           -7.9672750
 Quadrupole XY       :          0.0000000            0.0000000            0.0000000
 Quadrupole XZ       :          0.0000000            0.0000000            0.0000000
 Quadrupole YY       :         -7.9672750            0.0000000           -7.9672750
 Quadrupole YZ       :          0.0000000            0.0000000            0.0000000
 Quadrupole ZZ       :        -12.1468259            3.6844224           -8.4624035
 Traceless XX        :          1.3931836           -1.2281408            0.1650429
 Traceless YY        :          1.3931836           -1.2281408            0.1650429
 Traceless ZZ        :         -2.7863673            2.4562816           -0.3300857

 ------------------------------------------------------------------------------------
  ==> Computing MBIS Charges <==

  Electron Count from Grid (Expected Number):  8.00000 ( 8.00000)
  Difference: -0.00000

  MBIS Charges: (a.u.)
   Center  Symbol  Z      Pop.       Charge
      1       C    6    7.052527   -1.052527
      2       H    1    0.947473    0.052527

  MBIS Dipoles: [e a0]
   Center  Symbol  Z        X           Y           Z
      1       C    6    0.000000    0.000000    0.238441
      2       H    1    0.000000   -0.000000    0.007773

  MBIS Quadrupoles: [e a0^2]
   Center  Symbol  Z      XX        XY        XZ        YY        YZ        ZZ
      1       C    6   -7.3439    0.0000   -0.0000   -7.3439    0.0000   -7.8981
      2       H    1   -0.6234   -0.0000   -0.0000   -0.6234   -0.0000   -0.6776

  MBIS Octupoles: [e a0^3]
   Center  Symbol  Z      XXX       XXY       XXZ       XYY       XYZ       XZZ       YYY       YYZ       YZZ       ZZZ
      1       C    6    0.0000   -0.0000    0.3622   -0.0000   -0.0000   -0.0000   -0.0000    0.3622   -0.0000   -0.5561
      2       H    1   -0.0000   -0.0000   -0.0315   -0.0000    0.0000   -0.0000    0.0000   -0.0315   -0.0000   -0.1113

  MBIS Radial Moments:
   Center  Symbol  Z      [a0^2]      [a0^3]      [a0^4]
      1       C    6   22.585887   64.748947   218.304844
      2       H    1    1.924428    3.993446    9.945581

  MBIS Valence Widths: [a0]
   Center  Symbol  Z     Width
      1       C    6    0.598575
      2       H    1    0.410325

*** tstop() called on Mac.lan at Sun Aug 10 17:35:45 2025
Module time:
	user time   =       3.88 seconds =       0.06 minutes
	system time =       2.37 seconds =       0.04 minutes
	total time  =          0 seconds =       0.00 minutes
Total time:
	user time   =      13.11 seconds =       0.22 minutes
	system time =       4.35 seconds =       0.07 minutes
	total time  =          2 seconds =       0.03 minutes

    Psi4 stopped on: Sunday, 10 August 2025 05:35PM
    Psi4 wall time for execution: 0:00:01.70

*** Psi4 exiting successfully. Buy a developer a beer!
