                               Psi4 1.9.1 release

  ==> Input File <==

--------------------------------------------------------------------------
molecule {
-1 3
C           0.000000           0.000000           0.000000
H           0.000000           0.000000           1.375697
}

set {
basis              cc-pvtz
reference          uks
maxiter            500
DAMPING_PERCENTAGE 1
E_CONVERGENCE      1.0E-8
D_CONVERGENCE      1.0E-8
DIIS_MAX_VECS      400
MBIS_MAXITER       8000
guess              read
}

E, wfn = energy('b3lyp', restart_file='last_wfn', return_wfn=True)
properties('b3lyp','MBIS_CHARGES', wfn=wfn)
wfn.to_file('last_wfn')
--------------------------------------------------------------------------

    Molecular point group: c2v
  Charge       = -1
  Multiplicity = 3
  Basis Set: CC-PVTZ
    Blend: CC-PVTZ
  Basis Set: (CC-PVTZ AUX)
    Blend: CC-PVTZ-JKFIT
  @DF-UKS Final Energy:   -38.51485307251835
    Total Energy =                        -38.5148530725183491
 Dipole X            :          0.0000000            0.0000000            0.0000000
 Dipole Y            :          0.0000000            0.0000000            0.0000000
 Dipole Z            :         -1.2027346            1.1897521           -0.0129825
 Magnitude           :                                                    0.0129825
    Molecular point group: c2v

    Geometry (in Angstrom), charge = -1, multiplicity = 3:

       Center              X                  Y                   Z               Mass
    ------------   -----------------  -----------------  -----------------  -----------------
         C            0.000000000000     0.000000000000    -0.106586756043    12.000000000000
         H            0.000000000000     0.000000000000     1.269110243957     1.007825032230

  Charge       = -1
  Multiplicity = 3
  Basis Set: CC-PVTZ
    Blend: CC-PVTZ
  Basis Set: (CC-PVTZ AUX)
    Blend: CC-PVTZ-JKFIT

    Orbital Energies [Eh]
    ---------------------

    Alpha Occupied:

       1A1    -9.908960     2A1    -0.277281     3A1     0.001757
       1B2     0.075745     1B1     0.075745

    Alpha Virtual:

       4A1     0.276600     5A1     0.528016     2B2     0.565954
       2B1     0.565954     6A1     0.598179     7A1     0.719377
       3B1     0.844956     3B2     0.844956     8A1     0.957629
       1A2     0.957629     9A1     1.188637     4B1     1.251412
       4B2     1.251412    10A1     1.493470     5B2     2.256196
       5B1     2.256196    11A1     2.453090    12A1     2.723924
       6B2     2.891354     6B1     2.891354     2A2     2.901103
      13A1     2.901103     7B1     2.981096     7B2     2.981096
      14A1     3.033850     3A2     3.240814    15A1     3.240815
       8B1     3.360817     8B2     3.360817    16A1     3.426539
       4A2     3.670146    17A1     3.670152     9B1     4.006285
       9B2     4.006285    18A1     4.111167    10B1     4.468571
      10B2     4.468571    19A1     4.616811    20A1     6.495142

    Beta Occupied:

       1A1    -9.884678     2A1    -0.198459     3A1     0.028542

    Beta Virtual:

       1B2     0.235218     1B1     0.235218     4A1     0.289270
       5A1     0.538190     6A1     0.615804     2B2     0.637240
       2B1     0.637240     7A1     0.764420     3B1     0.867335
       3B2     0.867335     8A1     1.034092     1A2     1.034092
       9A1     1.211881     4B1     1.276407     4B2     1.276407
      10A1     1.503779     5B2     2.335118     5B1     2.335118
      11A1     2.474512    12A1     2.733086     6B2     2.928766
       6B1     2.928766     2A2     2.953867    13A1     2.953868
      14A1     3.066248     7B1     3.077243     7B2     3.077243
       3A2     3.360148    15A1     3.360149     8B2     3.420956
       8B1     3.420956    16A1     3.463344     4A2     3.681499
      17A1     3.681504     9B1     4.003091     9B2     4.003091
      18A1     4.133008    10B1     4.482941    10B2     4.482941
      19A1     4.619855    20A1     6.521338

    Final Occupation by Irrep:
             A1    A2    B1    B2
    DOCC [     3,    0,    0,    0 ]
    SOCC [     0,    0,    1,    1 ]
    NA   [     3,    0,    1,    1 ]
    NB   [     3,    0,    0,    0 ]

  @DF-UKS Final Energy:   -38.51485307282069

   => Energetics <=

    Nuclear Repulsion Energy =              2.3079669898386053
    One-Electron Energy =                 -58.1588193338970498
    Two-Electron Energy =                  22.0494975685201098
    DFT Exchange-Correlation Energy =      -4.7134982972823503
    Empirical Dispersion Energy =           0.0000000000000000
    VV10 Nonlocal Energy =                  0.0000000000000000
    Total Energy =                        -38.5148530728206850

  UHF NO Occupations:
  HONO-2 :    3 A1 1.9973062
  HONO-1 :    1 B2 1.0000000
  HONO-0 :    1 B1 1.0000000
  LUNO+0 :    4 A1 0.0026938
  LUNO+1 :    5 A1 0.0007152
  LUNO+2 :    6 A1 0.0000011
  LUNO+3 :    7 A1 0.0000000

Computation Completed

Properties will be evaluated at   0.000000,   0.000000,   0.000000 [a0]

Properties computed using the B3LYP density matrix

 Multipole Moments:

 ------------------------------------------------------------------------------------
     Multipole            Electronic (a.u.)      Nuclear  (a.u.)        Total (a.u.)
 ------------------------------------------------------------------------------------

 L = 1.  Multiply by 2.5417464519 to convert [e a0] to [Debye]
 Dipole X            :          0.0000000            0.0000000            0.0000000
 Dipole Y            :          0.0000000            0.0000000            0.0000000
 Dipole Z            :         -1.2027346            1.1897521           -0.0129825
 Magnitude           :                                                    0.0129825

 L = 2.  Multiply by 1.3450342976 to convert [e a0^2] to [Debye ang]
 Quadrupole XX       :         -8.1566772            0.0000000           -8.1566772
 Quadrupole XY       :          0.0000000            0.0000000            0.0000000
 Quadrupole XZ       :          0.0000000            0.0000000            0.0000000
 Quadrupole YY       :         -8.1566772            0.0000000           -8.1566772
 Quadrupole YZ       :          0.0000000            0.0000000            0.0000000
 Quadrupole ZZ       :        -15.5189397            5.9951223           -9.5238174
 Traceless XX        :          2.4540875           -1.9983741            0.4557134
 Traceless YY        :          2.4540875           -1.9983741            0.4557134
 Traceless ZZ        :         -4.9081750            3.9967482           -0.9114268

 ------------------------------------------------------------------------------------
  ==> Computing MBIS Charges <==

  Electron Count from Grid (Expected Number):  8.00000 ( 8.00000)
  Difference:  0.00000

  MBIS Charges: (a.u.)
   Center  Symbol  Z      Pop.       Charge
      1       C    6    6.840135   -0.840135
      2       H    1    1.159865   -0.159865

  MBIS Dipoles: [e a0]
   Center  Symbol  Z        X           Y           Z
      1       C    6   -0.000000   -0.000000    0.217145
      2       H    1    0.000000    0.000000   -0.015947

  MBIS Quadrupoles: [e a0^2]
   Center  Symbol  Z      XX        XY        XZ        YY        YZ        ZZ
      1       C    6   -6.9767    0.0000    0.0000   -6.9767    0.0000   -7.1480
      2       H    1   -1.1799   -0.0000    0.0000   -1.1799    0.0000   -1.2583

  MBIS Octupoles: [e a0^3]
   Center  Symbol  Z      XXX       XXY       XXZ       XYY       XYZ       XZZ       YYY       YYZ       YZZ       ZZZ
      1       C    6   -0.0000   -0.0000    0.2021   -0.0000   -0.0000    0.0000   -0.0000    0.2021   -0.0000   -0.6667
      2       H    1    0.0000   -0.0000   -0.1071    0.0000   -0.0000    0.0000   -0.0000   -0.1071   -0.0000   -0.2311

  MBIS Radial Moments:
   Center  Symbol  Z      [a0^2]      [a0^3]      [a0^4]
      1       C    6   21.101485   59.661946   199.238734
      2       H    1    3.618140    9.272639   28.178326

  MBIS Valence Widths: [a0]
   Center  Symbol  Z     Width
      1       C    6    0.590601
      2       H    1    0.507037

*** tstop() called on Mac.lan at Sun Aug 10 17:36:08 2025
Module time:
	user time   =       3.29 seconds =       0.05 minutes
	system time =       1.75 seconds =       0.03 minutes
	total time  =          0 seconds =       0.00 minutes
Total time:
	user time   =      13.54 seconds =       0.23 minutes
	system time =       3.85 seconds =       0.06 minutes
	total time  =          1 seconds =       0.02 minutes

    Psi4 stopped on: Sunday, 10 August 2025 05:36PM
    Psi4 wall time for execution: 0:00:01.70

*** Psi4 exiting successfully. Buy a developer a beer!
