                               Psi4 1.9.1 release

  ==> Input File <==

--------------------------------------------------------------------------
molecule {
-1 2
H           0.000000           0.000000           0.000000
H           0.000000           0.000000           1.008139
}

set {
basis              cc-pvtz
reference          uks
maxiter            500
DAMPING_PERCENTAGE 1
E_CONVERGENCE      1.0E-8
D_CONVERGENCE      1.0E-8
DIIS_MAX_VECS      400
MBIS_MAXITER       8000
guess              read
}

E, wfn = energy('b3lyp', restart_file='last_wfn', return_wfn=True)
properties('b3lyp','MBIS_CHARGES', wfn=wfn)
wfn.to_file('last_wfn')
--------------------------------------------------------------------------

    Molecular point group: d2h
  Charge       = -1
  Multiplicity = 2
  Basis Set: CC-PVTZ
    Blend: CC-PVTZ
  Basis Set: (CC-PVTZ AUX)
    Blend: CC-PVTZ-JKFIT
  @DF-UKS Final Energy:    -1.05748984176960
    Total Energy =                         -1.0574898417695995
 Dipole X            :          0.0000000            0.0000000            0.0000000
 Dipole Y            :          0.0000000            0.0000000            0.0000000
 Dipole Z            :          0.0000000            0.0000000            0.0000000
 Magnitude           :                                                    0.0000000
    Molecular point group: d2h

    Geometry (in Angstrom), charge = -1, multiplicity = 2:

       Center              X                  Y                   Z               Mass
    ------------   -----------------  -----------------  -----------------  -----------------
         H            0.000000000000     0.000000000000    -0.504069500000     1.007825032230
         H            0.000000000000     0.000000000000     0.504069500000     1.007825032230

  Charge       = -1
  Multiplicity = 2
  Basis Set: CC-PVTZ
    Blend: CC-PVTZ
  Basis Set: (CC-PVTZ AUX)
    Blend: CC-PVTZ-JKFIT

    Orbital Energies [Eh]
    ---------------------

    Alpha Occupied:

       1Ag    -0.089307     1B1u    0.189534

    Alpha Virtual:

       2Ag     0.452738     2B1u    0.626235     1B3u    0.793779
       1B2u    0.793779     3Ag     1.098993     1B3g    1.153544
       1B2g    1.153544     3B1u    1.565466     4Ag     2.514381
       4B1u    2.588253     2B3u    3.244932     2B2u    3.244932
       5Ag     3.249756     1B1g    3.249756     6Ag     3.438058
       5B1u    3.848952     1Au     3.848952     3B3u    3.946307
       3B2u    3.946307     2B2g    4.005363     2B3g    4.005363
       6B1u    4.112520     3B2g    4.905331     3B3g    4.905331
       7Ag     4.964416     7B1u    6.174602

    Beta Occupied:

       1Ag    -0.057187

    Beta Virtual:

       1B1u    0.286314     2Ag     0.470287     2B1u    0.672281
       1B2u    0.806996     1B3u    0.806996     3Ag     1.141516
       1B3g    1.189391     1B2g    1.189391     3B1u    1.605256
       4Ag     2.538473     4B1u    2.626289     2B3u    3.255478
       2B2u    3.255478     5Ag     3.266747     1B1g    3.266747
       6Ag     3.469248     5B1u    3.874460     1Au     3.874460
       3B3u    3.983448     3B2u    3.983448     2B2g    4.044672
       2B3g    4.044672     6B1u    4.159654     3B2g    4.931236
       3B3g    4.931236     7Ag     5.000134     7B1u    6.198443

    Final Occupation by Irrep:
             Ag   B1g   B2g   B3g    Au   B1u   B2u   B3u
    DOCC [     1,    0,    0,    0,    0,    0,    0,    0 ]
    SOCC [     0,    0,    0,    0,    0,    1,    0,    0 ]
    NA   [     1,    0,    0,    0,    0,    1,    0,    0 ]
    NB   [     1,    0,    0,    0,    0,    0,    0,    0 ]

  @DF-UKS Final Energy:    -1.05748984133967

   => Energetics <=

    Nuclear Repulsion Energy =              0.5249050088033498
    One-Electron Energy =                  -2.7067923217724124
    Two-Electron Energy =                   1.8163455313110592
    DFT Exchange-Correlation Energy =      -0.6919480596816648
    Empirical Dispersion Energy =           0.0000000000000000
    VV10 Nonlocal Energy =                  0.0000000000000000
    Total Energy =                         -1.0574898413396685

  UHF NO Occupations:
  HONO-1 :    1 Ag 1.9995165
  HONO-0 :    1B1u 1.0000000
  LUNO+0 :    2 Ag 0.0004835
  LUNO+1 :    3 Ag 0.0000000
  LUNO+2 :    2B1u 0.0000000
  LUNO+3 :    4 Ag 0.0000000

Computation Completed

Properties will be evaluated at   0.000000,   0.000000,   0.000000 [a0]

Properties computed using the B3LYP density matrix

 Multipole Moments:

 ------------------------------------------------------------------------------------
     Multipole            Electronic (a.u.)      Nuclear  (a.u.)        Total (a.u.)
 ------------------------------------------------------------------------------------

 L = 1.  Multiply by 2.5417464519 to convert [e a0] to [Debye]
 Dipole X            :          0.0000000            0.0000000            0.0000000
 Dipole Y            :          0.0000000            0.0000000            0.0000000
 Dipole Z            :          0.0000000            0.0000000            0.0000000
 Magnitude           :                                                    0.0000000

 L = 2.  Multiply by 1.3450342976 to convert [e a0^2] to [Debye ang]
 Quadrupole XX       :         -4.2728100            0.0000000           -4.2728100
 Quadrupole XY       :          0.0000000            0.0000000            0.0000000
 Quadrupole XZ       :          0.0000000            0.0000000            0.0000000
 Quadrupole YY       :         -4.2728100            0.0000000           -4.2728100
 Quadrupole YZ       :          0.0000000            0.0000000            0.0000000
 Quadrupole ZZ       :        -10.0602811            1.8147156           -8.2455655
 Traceless XX        :          1.9291570           -0.6049052            1.3242518
 Traceless YY        :          1.9291570           -0.6049052            1.3242518
 Traceless ZZ        :         -3.8583141            1.2098104           -2.6485037

 ------------------------------------------------------------------------------------
  ==> Computing MBIS Charges <==

  Electron Count from Grid (Expected Number):  3.00000 ( 3.00000)
  Difference: -0.00000

  MBIS Charges: (a.u.)
   Center  Symbol  Z      Pop.       Charge
      1       H    1    1.500000   -0.500000
      2       H    1    1.500000   -0.500000

  MBIS Dipoles: [e a0]
   Center  Symbol  Z        X           Y           Z
      1       H    1    0.000000    0.000000    0.290047
      2       H    1    0.000000   -0.000000   -0.290047

  MBIS Quadrupoles: [e a0^2]
   Center  Symbol  Z      XX        XY        XZ        YY        YZ        ZZ
      1       H    1   -2.1364   -0.0000   -0.0000   -2.1364   -0.0000   -3.1165
      2       H    1   -2.1364   -0.0000    0.0000   -2.1364    0.0000   -3.1165

  MBIS Octupoles: [e a0^3]
   Center  Symbol  Z      XXX       XXY       XXZ       XYY       XYZ       XZZ       YYY       YYZ       YZZ       ZZZ
      1       H    1    0.0000    0.0000    0.7569    0.0000   -0.0000    0.0000    0.0000    0.7569   -0.0000    1.4344
      2       H    1   -0.0000    0.0000   -0.7569    0.0000    0.0000    0.0000    0.0000   -0.7569    0.0000   -1.4344

  MBIS Radial Moments:
   Center  Symbol  Z      [a0^2]      [a0^3]      [a0^4]
      1       H    1    7.389344   23.563262   87.241403
      2       H    1    7.389344   23.563262   87.241403

  MBIS Valence Widths: [a0]
   Center  Symbol  Z     Width
      1       H    1    0.634689
      2       H    1    0.634689

*** tstop() called on Mac.lan at Sun Aug 10 17:25:41 2025
Module time:
	user time   =       0.52 seconds =       0.01 minutes
	system time =       1.37 seconds =       0.02 minutes
	total time  =          1 seconds =       0.02 minutes
Total time:
	user time   =       1.99 seconds =       0.03 minutes
	system time =       3.13 seconds =       0.05 minutes
	total time  =          1 seconds =       0.02 minutes

    Psi4 stopped on: Sunday, 10 August 2025 05:25PM
    Psi4 wall time for execution: 0:00:00.84

*** Psi4 exiting successfully. Buy a developer a beer!
