                               Psi4 1.9.1 release

  ==> Input File <==

--------------------------------------------------------------------------
molecule {
-1 2
O           0.000000           0.000000           0.000000
O           0.000000           0.000000           1.869855
}

set {
basis              cc-pvtz
reference          uks
maxiter            500
DAMPING_PERCENTAGE 1
E_CONVERGENCE      1.0E-8
D_CONVERGENCE      1.0E-8
DIIS_MAX_VECS      400
MBIS_MAXITER       8000
guess              read
}

E, wfn = energy('b3lyp', restart_file='last_wfn', return_wfn=True)
properties('b3lyp','MBIS_CHARGES', wfn=wfn)
wfn.to_file('last_wfn')
--------------------------------------------------------------------------

    Molecular point group: d2h
  Charge       = -1
  Multiplicity = 2
  Basis Set: CC-PVTZ
    Blend: CC-PVTZ
  Basis Set: (CC-PVTZ AUX)
    Blend: CC-PVTZ-JKFIT
  @DF-UKS Final Energy:  -150.29582401351126
    Total Energy =                       -150.2958240135112931
 Dipole X            :          0.0000000            0.0000000            0.0000000
 Dipole Y            :          0.0000000            0.0000000            0.0000000
 Dipole Z            :          0.0000000            0.0000000            0.0000000
 Magnitude           :                                                    0.0000000
    Molecular point group: d2h

    Geometry (in Angstrom), charge = -1, multiplicity = 2:

       Center              X                  Y                   Z               Mass
    ------------   -----------------  -----------------  -----------------  -----------------
         O            0.000000000000     0.000000000000    -0.934927500000    15.994914619570
         O            0.000000000000     0.000000000000     0.934927500000    15.994914619570

  Charge       = -1
  Multiplicity = 2
  Basis Set: CC-PVTZ
    Blend: CC-PVTZ
  Basis Set: (CC-PVTZ AUX)
    Blend: CC-PVTZ-JKFIT

    Orbital Energies [Eh]
    ---------------------

    Alpha Occupied:

       1Ag   -18.883179     1B1u  -18.883157     2Ag    -0.648351
       2B1u   -0.563054     1B2u   -0.079133     3Ag    -0.073810
       1B3u   -0.041156     1B3g   -0.024735     1B2g    0.016224

    Alpha Virtual:

       3B1u    0.167286     4B1u    0.799111     2B2u    0.806450
       2B3u    0.829025     2B3g    0.903326     4Ag     0.912010
       2B2g    0.923502     5Ag     1.041959     5B1u    1.377300
       3B2u    1.578840     3B3u    1.599642     6Ag     1.656492
       1B1g    1.724873     7Ag     1.727195     1Au     1.805116
       6B1u    1.805381     3B3g    2.032568     3B2g    2.056375
       7B1u    2.569608     4B2u    3.834960     8Ag     3.835980
       4B3u    3.869843     4B3g    3.888075     4B2g    3.923121
       8B1u    4.021751     9Ag     5.264100     5B2u    5.280966
       5B3u    5.308631     2B1g    5.387824    10Ag     5.390744
       6B2u    5.421571     6B3u    5.421740     5B3g    5.423302
       5B2g    5.423515     9B1u    5.433708     2Au     5.434625
       6B3g    5.512601     6B2g    5.540087    10B1u    5.671289
       7B2u    6.351406     7B3u    6.384928    11Ag     6.429392
       3B1g    6.433577    11B1u    6.492949     3Au     6.493141
      12Ag     6.499288     7B3g    6.698989     7B2g    6.732062
      12B1u    7.116070    13Ag     7.397442    13B1u    8.241799

    Beta Occupied:

       1Ag   -18.869401     1B1u  -18.869364     2Ag    -0.611977
       2B1u   -0.520741     3Ag    -0.061515     1B3u   -0.029094
       1B2u    0.015307     1B2g    0.030123

    Beta Virtual:

       1B3g    0.131646     3B1u    0.183305     4B1u    0.806667
       2B3u    0.834863     2B2u    0.847320     4Ag     0.921264
       2B2g    0.928922     2B3g    0.940138     5Ag     1.053001
       5B1u    1.392660     3B2u    1.601508     3B3u    1.601541
       6Ag     1.669518     1B1g    1.749498     7Ag     1.750877
       1Au     1.832017     6B1u    1.833371     3B2g    2.059668
       3B3g    2.062034     7B1u    2.582716     8Ag     3.845388
       4B3u    3.880591     4B2u    3.896056     4B2g    3.933998
       4B3g    3.949529     8B1u    4.034164     9Ag     5.283638
       5B3u    5.313303     5B2u    5.313406     2B1g    5.411607
      10Ag     5.412978     6B3u    5.456122     6B2u    5.456386
       2Au     5.458651     5B2g    5.459403     5B3g    5.459678
       9B1u    5.460032     6B2g    5.543577     6B3g    5.544149
      10B1u    5.685907     7B3u    6.392266     7B2u    6.404949
       3B1g    6.483361    11Ag     6.486063    12Ag     6.512369
       3Au     6.542684    11B1u    6.545994     7B2g    6.738910
       7B3g    6.750649    12B1u    7.127968    13Ag     7.425607
      13B1u    8.270775

    Final Occupation by Irrep:
             Ag   B1g   B2g   B3g    Au   B1u   B2u   B3u
    DOCC [     3,    0,    1,    0,    0,    2,    1,    1 ]
    SOCC [     0,    0,    0,    1,    0,    0,    0,    0 ]
    NA   [     3,    0,    1,    1,    0,    2,    1,    1 ]
    NB   [     3,    0,    1,    0,    0,    2,    1,    1 ]

  @DF-UKS Final Energy:  -150.29582401316918

   => Energetics <=

    Nuclear Repulsion Energy =             18.1122822266325443
    One-Electron Energy =                -248.7379682263510858
    Two-Electron Energy =                  94.2109269240316678
    DFT Exchange-Correlation Energy =     -13.8810649374823498
    Empirical Dispersion Energy =           0.0000000000000000
    VV10 Nonlocal Energy =                  0.0000000000000000
    Total Energy =                       -150.2958240131692378

  UHF NO Occupations:
  HONO-2 :    2B1u 1.9998074
  HONO-1 :    1B2u 1.9978551
  HONO-0 :    1B3g 1.0000000
  LUNO+0 :    2B2u 0.0021449
  LUNO+1 :    3B1u 0.0001926
  LUNO+2 :    4 Ag 0.0001587
  LUNO+3 :    2B3u 0.0000561

Computation Completed

Properties will be evaluated at   0.000000,   0.000000,   0.000000 [a0]

Properties computed using the B3LYP density matrix

 Multipole Moments:

 ------------------------------------------------------------------------------------
     Multipole            Electronic (a.u.)      Nuclear  (a.u.)        Total (a.u.)
 ------------------------------------------------------------------------------------

 L = 1.  Multiply by 2.5417464519 to convert [e a0] to [Debye]
 Dipole X            :          0.0000000            0.0000000            0.0000000
 Dipole Y            :          0.0000000            0.0000000            0.0000000
 Dipole Z            :          0.0000000            0.0000000            0.0000000
 Magnitude           :                                                    0.0000000

 L = 2.  Multiply by 1.3450342976 to convert [e a0^2] to [Debye ang]
 Quadrupole XX       :         -9.9480310            0.0000000           -9.9480310
 Quadrupole XY       :          0.0000000            0.0000000            0.0000000
 Quadrupole XZ       :          0.0000000            0.0000000            0.0000000
 Quadrupole YY       :         -9.1462842            0.0000000           -9.1462842
 Quadrupole YZ       :          0.0000000            0.0000000            0.0000000
 Quadrupole ZZ       :        -61.8213297           49.9428804          -11.8784494
 Traceless XX        :         17.0238506          -16.6476268            0.3762238
 Traceless YY        :         17.8255975          -16.6476268            1.1779707
 Traceless ZZ        :        -34.8494481           33.2952536           -1.5541945

 ------------------------------------------------------------------------------------
  ==> Computing MBIS Charges <==

  Electron Count from Grid (Expected Number): 17.00000 (17.00000)
  Difference:  0.00000

  MBIS Charges: (a.u.)
   Center  Symbol  Z      Pop.       Charge
      1       O    8    8.500001   -0.500001
      2       O    8    8.500001   -0.500001

  MBIS Dipoles: [e a0]
   Center  Symbol  Z        X           Y           Z
      1       O    8    0.000000   -0.000000    0.029760
      2       O    8   -0.000000    0.000000   -0.029760

  MBIS Quadrupoles: [e a0^2]
   Center  Symbol  Z      XX        XY        XZ        YY        YZ        ZZ
      1       O    8   -4.9740   -0.0000    0.0000   -4.5731   -0.0000   -4.2734
      2       O    8   -4.9740   -0.0000   -0.0000   -4.5731    0.0000   -4.2734

  MBIS Octupoles: [e a0^3]
   Center  Symbol  Z      XXX       XXY       XXZ       XYY       XYZ       XZZ       YYY       YYZ       YZZ       ZZZ
      1       O    8   -0.0000   -0.0000    0.0111    0.0000   -0.0000   -0.0000   -0.0000   -0.0754    0.0000   -0.3816
      2       O    8   -0.0000   -0.0000   -0.0111    0.0000    0.0000    0.0000    0.0000    0.0754   -0.0000    0.3816

  MBIS Radial Moments:
   Center  Symbol  Z      [a0^2]      [a0^3]      [a0^4]
      1       O    8   13.820507   27.935030   67.277469
      2       O    8   13.820507   27.935030   67.277469

  MBIS Valence Widths: [a0]
   Center  Symbol  Z     Width
      1       O    8    0.411267
      2       O    8    0.411267

*** tstop() called on Mac.lan at Sun Aug 10 17:28:58 2025
Module time:
	user time   =       3.41 seconds =       0.06 minutes
	system time =       2.14 seconds =       0.04 minutes
	total time  =          0 seconds =       0.00 minutes
Total time:
	user time   =      22.32 seconds =       0.37 minutes
	system time =       4.53 seconds =       0.08 minutes
	total time  =          2 seconds =       0.03 minutes

    Psi4 stopped on: Sunday, 10 August 2025 05:28PM
    Psi4 wall time for execution: 0:00:02.65

*** Psi4 exiting successfully. Buy a developer a beer!
