                               Psi4 1.9.1 release

  ==> Input File <==

--------------------------------------------------------------------------
molecule {
-1 2
H           0.000000           0.000000           0.000000
H           0.000000           0.000000           0.407293
}

set {
basis              cc-pvtz
reference          uks
maxiter            500
DAMPING_PERCENTAGE 1
E_CONVERGENCE      1.0E-8
D_CONVERGENCE      1.0E-8
DIIS_MAX_VECS      400
MBIS_MAXITER       8000
guess              read
}

E, wfn = energy('b3lyp', restart_file='last_wfn', return_wfn=True)
properties('b3lyp','MBIS_CHARGES', wfn=wfn)
wfn.to_file('last_wfn')
--------------------------------------------------------------------------

    Molecular point group: d2h
  Charge       = -1
  Multiplicity = 2
  Basis Set: CC-PVTZ
    Blend: CC-PVTZ
  Basis Set: (CC-PVTZ AUX)
    Blend: CC-PVTZ-JKFIT
  @DF-UKS Final Energy:    -0.83805757007120
    Total Energy =                         -0.8380575700711997
 Dipole X            :          0.0000000            0.0000000            0.0000000
 Dipole Y            :          0.0000000            0.0000000            0.0000000
 Dipole Z            :          0.0000000            0.0000000            0.0000000
 Magnitude           :                                                    0.0000000
    Molecular point group: d2h

    Geometry (in Angstrom), charge = -1, multiplicity = 2:

       Center              X                  Y                   Z               Mass
    ------------   -----------------  -----------------  -----------------  -----------------
         H            0.000000000000     0.000000000000    -0.203646500000     1.007825032230
         H            0.000000000000     0.000000000000     0.203646500000     1.007825032230

  Charge       = -1
  Multiplicity = 2
  Basis Set: CC-PVTZ
    Blend: CC-PVTZ
  Basis Set: (CC-PVTZ AUX)
    Blend: CC-PVTZ-JKFIT

    Orbital Energies [Eh]
    ---------------------

    Alpha Occupied:

       1Ag    -0.244086     1B1u    0.227145

    Alpha Virtual:

       2Ag     0.374059     2B1u    0.777391     1B3u    0.827015
       1B2u    0.827015     3Ag     1.234827     1B2g    1.238633
       1B3g    1.238633     3B1u    1.712190     4Ag     2.086891
       1B1g    3.268428     5Ag     3.268428     4B1u    3.440721
       2B2u    3.474699     2B3u    3.474699     2B3g    3.576463
       2B2g    3.576463     6Ag     3.770985     5B1u    4.407920
       1Au     4.407920     3B2u    4.436976     3B3u    4.436976
       6B1u    4.959989     7Ag     6.791638     3B3g    7.331657
       3B2g    7.331657     7B1u   11.899497

    Beta Occupied:

       1Ag    -0.239706

    Beta Virtual:

       1B1u    0.322601     2Ag     0.395721     2B1u    0.797545
       1B3u    0.824526     1B2u    0.824526     1B2g    1.244440
       1B3g    1.244440     3Ag     1.262715     3B1u    1.720985
       4Ag     2.092703     1B1g    3.268064     5Ag     3.268064
       4B1u    3.454740     2B2u    3.472278     2B3u    3.472278
       2B3g    3.586090     2B2g    3.586090     6Ag     3.786853
       1Au     4.412164     5B1u    4.412164     3B2u    4.446083
       3B3u    4.446083     6B1u    4.968313     7Ag     6.798136
       3B3g    7.337296     3B2g    7.337296     7B1u   11.904911

    Final Occupation by Irrep:
             Ag   B1g   B2g   B3g    Au   B1u   B2u   B3u
    DOCC [     1,    0,    0,    0,    0,    0,    0,    0 ]
    SOCC [     0,    0,    0,    0,    0,    1,    0,    0 ]
    NA   [     1,    0,    0,    0,    0,    1,    0,    0 ]
    NB   [     1,    0,    0,    0,    0,    0,    0,    0 ]

  @DF-UKS Final Energy:    -0.83805756993297

   => Energetics <=

    Nuclear Repulsion Energy =              1.2992543713493725
    One-Electron Energy =                  -3.4240963413815160
    Two-Electron Energy =                   2.1077858665185767
    DFT Exchange-Correlation Energy =      -0.8210014664194045
    Empirical Dispersion Energy =           0.0000000000000000
    VV10 Nonlocal Energy =                  0.0000000000000000
    Total Energy =                         -0.8380575699329713

  UHF NO Occupations:
  HONO-1 :    1 Ag 1.9998980
  HONO-0 :    1B1u 1.0000000
  LUNO+0 :    2 Ag 0.0001020
  LUNO+1 :    3 Ag 0.0000000
  LUNO+2 :    2B1u 0.0000000
  LUNO+3 :    3B1u 0.0000000

Computation Completed

Properties will be evaluated at   0.000000,   0.000000,   0.000000 [a0]

Properties computed using the B3LYP density matrix

 Multipole Moments:

 ------------------------------------------------------------------------------------
     Multipole            Electronic (a.u.)      Nuclear  (a.u.)        Total (a.u.)
 ------------------------------------------------------------------------------------

 L = 1.  Multiply by 2.5417464519 to convert [e a0] to [Debye]
 Dipole X            :          0.0000000            0.0000000            0.0000000
 Dipole Y            :          0.0000000            0.0000000            0.0000000
 Dipole Z            :          0.0000000            0.0000000            0.0000000
 Magnitude           :                                                    0.0000000

 L = 2.  Multiply by 1.3450342976 to convert [e a0^2] to [Debye ang]
 Quadrupole XX       :         -4.1508287            0.0000000           -4.1508287
 Quadrupole XY       :          0.0000000            0.0000000            0.0000000
 Quadrupole XZ       :          0.0000000            0.0000000            0.0000000
 Quadrupole YY       :         -4.1508287            0.0000000           -4.1508287
 Quadrupole YZ       :          0.0000000            0.0000000            0.0000000
 Quadrupole ZZ       :        -10.5046884            0.2961977          -10.2084908
 Traceless XX        :          2.1179533           -0.0987326            2.0192207
 Traceless YY        :          2.1179533           -0.0987326            2.0192207
 Traceless ZZ        :         -4.2359065            0.1974651           -4.0384414

 ------------------------------------------------------------------------------------
  ==> Computing MBIS Charges <==

  Electron Count from Grid (Expected Number):  3.00000 ( 3.00000)
  Difference: -0.00000

  MBIS Charges: (a.u.)
   Center  Symbol  Z      Pop.       Charge
      1       H    1    1.500000   -0.500000
      2       H    1    1.500000   -0.500000

  MBIS Dipoles: [e a0]
   Center  Symbol  Z        X           Y           Z
      1       H    1    0.000000   -0.000000    0.265379
      2       H    1    0.000000   -0.000000   -0.265379

  MBIS Quadrupoles: [e a0^2]
   Center  Symbol  Z      XX        XY        XZ        YY        YZ        ZZ
      1       H    1   -2.0754    0.0000    0.0000   -2.0754   -0.0000   -4.8259
      2       H    1   -2.0754   -0.0000    0.0000   -2.0754    0.0000   -4.8259

  MBIS Octupoles: [e a0^3]
   Center  Symbol  Z      XXX       XXY       XXZ       XYY       XYZ       XZZ       YYY       YYZ       YZZ       ZZZ
      1       H    1    0.0000    0.0000    0.8385    0.0000   -0.0000   -0.0000   -0.0000    0.8385   -0.0000    2.1924
      2       H    1   -0.0000   -0.0000   -0.8385    0.0000    0.0000   -0.0000   -0.0000   -0.8385    0.0000   -2.1924

  MBIS Radial Moments:
   Center  Symbol  Z      [a0^2]      [a0^3]      [a0^4]
      1       H    1    8.976769   33.805306   144.023211
      2       H    1    8.976769   33.805306   144.023211

  MBIS Valence Widths: [a0]
   Center  Symbol  Z     Width
      1       H    1    0.662541
      2       H    1    0.662541

*** tstop() called on Mac.lan at Sun Aug 10 17:26:08 2025
Module time:
	user time   =       0.59 seconds =       0.01 minutes
	system time =       1.32 seconds =       0.02 minutes
	total time  =          0 seconds =       0.00 minutes
Total time:
	user time   =       2.14 seconds =       0.04 minutes
	system time =       3.00 seconds =       0.05 minutes
	total time  =          0 seconds =       0.00 minutes

    Psi4 stopped on: Sunday, 10 August 2025 05:26PM
    Psi4 wall time for execution: 0:00:00.83

*** Psi4 exiting successfully. Buy a developer a beer!
