                               Psi4 1.9.1 release

  ==> Input File <==

--------------------------------------------------------------------------
molecule {
-1 2
O           0.000000           0.000000           0.000000
O           0.000000           0.000000           1.615941
}

set {
basis              cc-pvtz
reference          uks
maxiter            500
DAMPING_PERCENTAGE 1
E_CONVERGENCE      1.0E-8
D_CONVERGENCE      1.0E-8
DIIS_MAX_VECS      400
MBIS_MAXITER       8000
guess              read
}

E, wfn = energy('b3lyp', restart_file='last_wfn', return_wfn=True)
properties('b3lyp','MBIS_CHARGES', wfn=wfn)
wfn.to_file('last_wfn')
--------------------------------------------------------------------------

    Molecular point group: d2h
  Charge       = -1
  Multiplicity = 2
  Basis Set: CC-PVTZ
    Blend: CC-PVTZ
  Basis Set: (CC-PVTZ AUX)
    Blend: CC-PVTZ-JKFIT
  @DF-UKS Final Energy:  -150.34588228748228
    Total Energy =                       -150.3458822874822829
 Dipole X            :          0.0000000            0.0000000            0.0000000
 Dipole Y            :          0.0000000            0.0000000            0.0000000
 Dipole Z            :          0.0000000            0.0000000            0.0000000
 Magnitude           :                                                    0.0000000
    Molecular point group: d2h

    Geometry (in Angstrom), charge = -1, multiplicity = 2:

       Center              X                  Y                   Z               Mass
    ------------   -----------------  -----------------  -----------------  -----------------
         O            0.000000000000     0.000000000000    -0.807970500000    15.994914619570
         O            0.000000000000     0.000000000000     0.807970500000    15.994914619570

  Charge       = -1
  Multiplicity = 2
  Basis Set: CC-PVTZ
    Blend: CC-PVTZ
  Basis Set: (CC-PVTZ AUX)
    Blend: CC-PVTZ-JKFIT

    Orbital Energies [Eh]
    ---------------------

    Alpha Occupied:

       1Ag   -18.863934     1B1u  -18.863903     2Ag    -0.684200
       2B1u   -0.519322     3Ag    -0.093520     1B2u   -0.088682
       1B3u   -0.050498     1B3g    0.008416     1B2g    0.050225

    Alpha Virtual:

       3B1u    0.262259     4B1u    0.785960     2B2u    0.826996
       2B3u    0.850167     4Ag     0.900378     2B3g    0.913783
       2B2g    0.934065     5Ag     1.055387     5B1u    1.451247
       3B2u    1.551753     3B3u    1.573306     6Ag     1.690958
       1B1g    1.691314     1Au     1.858983     6B1u    1.859292
       7Ag     1.910209     3B3g    2.214142     3B2g    2.239175
       7B1u    2.631469     8Ag     3.738221     4B2u    3.807176
       4B3u    3.841741     4B3g    3.929893     4B2g    3.966073
       8B1u    4.378186     5B2u    5.110042     5B3u    5.138783
       9Ag     5.166902     2B1g    5.307873    10Ag     5.310352
       6B2u    5.422244     6B3u    5.422294     5B3g    5.444457
       5B2g    5.444482     9B1u    5.535891     2Au     5.535971
       6B3g    5.806698     6B2g    5.835320    10B1u    6.092401
      11Ag     6.429779     3B1g    6.430325     7B2u    6.432607
       7B3u    6.466553     3Au     6.543586    11B1u    6.543723
      12Ag     6.732848     7B3g    6.935045     7B2g    6.967797
      13Ag     7.611162    12B1u    7.656802    13B1u    8.276318

    Beta Occupied:

       1Ag   -18.849889     1B1u  -18.849833     2Ag    -0.649858
       2B1u   -0.476248     3Ag    -0.080049     1B3u   -0.038615
       1B2u    0.001702     1B2g    0.064569

    Beta Virtual:

       1B3g    0.169754     3B1u    0.279492     4B1u    0.793355
       2B3u    0.856063     2B2u    0.867807     4Ag     0.908642
       2B2g    0.939576     2B3g    0.951402     5Ag     1.065580
       5B1u    1.467516     3B2u    1.573436     3B3u    1.574688
       1B1g    1.714810     6Ag     1.716054     1Au     1.886666
       6B1u    1.888084     7Ag     1.923205     3B2g    2.242652
       3B3g    2.244567     7B1u    2.643061     8Ag     3.747132
       4B3u    3.852258     4B2u    3.868108     4B2g    3.977340
       4B3g    3.992869     8B1u    4.393357     5B2u    5.142387
       5B3u    5.143202     9Ag     5.186696     2B1g    5.331114
      10Ag     5.332465     6B3u    5.457359     6B2u    5.457641
       5B2g    5.480258     5B3g    5.480542     2Au     5.560110
       9B1u    5.561511     6B2g    5.839817     6B3g    5.841614
      10B1u    6.107895     7B3u    6.473808     3B1g    6.480877
      11Ag     6.484364     7B2u    6.485917     3Au     6.593600
      11B1u    6.597103    12Ag     6.745409     7B2g    6.973903
       7B3g    6.983448    13Ag     7.641686    12B1u    7.670156
      13B1u    8.302665

    Final Occupation by Irrep:
             Ag   B1g   B2g   B3g    Au   B1u   B2u   B3u
    DOCC [     3,    0,    1,    0,    0,    2,    1,    1 ]
    SOCC [     0,    0,    0,    1,    0,    0,    0,    0 ]
    NA   [     3,    0,    1,    1,    0,    2,    1,    1 ]
    NB   [     3,    0,    1,    0,    0,    2,    1,    1 ]

  @DF-UKS Final Energy:  -150.34588228724374

   => Energetics <=

    Nuclear Repulsion Energy =             20.9582784785335576
    One-Electron Energy =                -254.6128015009371950
    Two-Electron Energy =                  97.2372691429975049
    DFT Exchange-Correlation Energy =     -13.9286284078376390
    Empirical Dispersion Energy =           0.0000000000000000
    VV10 Nonlocal Energy =                  0.0000000000000000
    Total Energy =                       -150.3458822872437679

  UHF NO Occupations:
  HONO-2 :    2B1u 1.9997639
  HONO-1 :    1B2u 1.9980338
  HONO-0 :    1B3g 1.0000000
  LUNO+0 :    2B2u 0.0019662
  LUNO+1 :    3B1u 0.0002361
  LUNO+2 :    4 Ag 0.0001546
  LUNO+3 :    2B3u 0.0000541

Computation Completed

Properties will be evaluated at   0.000000,   0.000000,   0.000000 [a0]

Properties computed using the B3LYP density matrix

 Multipole Moments:

 ------------------------------------------------------------------------------------
     Multipole            Electronic (a.u.)      Nuclear  (a.u.)        Total (a.u.)
 ------------------------------------------------------------------------------------

 L = 1.  Multiply by 2.5417464519 to convert [e a0] to [Debye]
 Dipole X            :          0.0000000            0.0000000            0.0000000
 Dipole Y            :          0.0000000            0.0000000            0.0000000
 Dipole Z            :          0.0000000            0.0000000            0.0000000
 Magnitude           :                                                    0.0000000

 L = 2.  Multiply by 1.3450342976 to convert [e a0^2] to [Debye ang]
 Quadrupole XX       :         -9.8477642            0.0000000           -9.8477642
 Quadrupole XY       :          0.0000000            0.0000000            0.0000000
 Quadrupole XZ       :          0.0000000            0.0000000            0.0000000
 Quadrupole YY       :         -9.0542881            0.0000000           -9.0542881
 Quadrupole YZ       :          0.0000000            0.0000000            0.0000000
 Quadrupole ZZ       :        -48.7902819           37.2999909          -11.4902910
 Traceless XX        :         12.7163472          -12.4333303            0.2830169
 Traceless YY        :         13.5098233          -12.4333303            1.0764930
 Traceless ZZ        :        -26.2261705           24.8666606           -1.3595099

 ------------------------------------------------------------------------------------
  ==> Computing MBIS Charges <==

  Electron Count from Grid (Expected Number): 17.00000 (17.00000)
  Difference: -0.00000

  MBIS Charges: (a.u.)
   Center  Symbol  Z      Pop.       Charge
      1       O    8    8.499999   -0.499999
      2       O    8    8.499999   -0.499999

  MBIS Dipoles: [e a0]
   Center  Symbol  Z        X           Y           Z
      1       O    8    0.000000   -0.000000    0.096705
      2       O    8    0.000000   -0.000000   -0.096705

  MBIS Quadrupoles: [e a0^2]
   Center  Symbol  Z      XX        XY        XZ        YY        YZ        ZZ
      1       O    8   -4.9239    0.0000    0.0000   -4.5271   -0.0000   -4.2842
      2       O    8   -4.9239    0.0000    0.0000   -4.5271    0.0000   -4.2842

  MBIS Octupoles: [e a0^3]
   Center  Symbol  Z      XXX       XXY       XXZ       XYY       XYZ       XZZ       YYY       YYZ       YZZ       ZZZ
      1       O    8   -0.0000   -0.0000    0.1232   -0.0000   -0.0000   -0.0000    0.0000    0.0135    0.0000   -0.2782
      2       O    8   -0.0000   -0.0000   -0.1232    0.0000    0.0000    0.0000    0.0000   -0.0135   -0.0000    0.2782

  MBIS Radial Moments:
   Center  Symbol  Z      [a0^2]      [a0^3]      [a0^4]
      1       O    8   13.735240   27.675203   66.488089
      2       O    8   13.735240   27.675203   66.488089

  MBIS Valence Widths: [a0]
   Center  Symbol  Z     Width
      1       O    8    0.409920
      2       O    8    0.409920

*** tstop() called on Mac.lan at Sun Aug 10 17:28:39 2025
Module time:
	user time   =       3.50 seconds =       0.06 minutes
	system time =       1.97 seconds =       0.03 minutes
	total time  =          1 seconds =       0.02 minutes
Total time:
	user time   =      16.70 seconds =       0.28 minutes
	system time =       4.44 seconds =       0.07 minutes
	total time  =          2 seconds =       0.03 minutes

    Psi4 stopped on: Sunday, 10 August 2025 05:28PM
    Psi4 wall time for execution: 0:00:02.06

*** Psi4 exiting successfully. Buy a developer a beer!
