                               Psi4 1.9.1 release

  ==> Input File <==

--------------------------------------------------------------------------
molecule {
-1 2
O           0.000000           0.000000           0.000000
O           0.000000           0.000000           0.822460
}

set {
basis              cc-pvtz
reference          uks
maxiter            500
DAMPING_PERCENTAGE 1
E_CONVERGENCE      1.0E-8
D_CONVERGENCE      1.0E-8
DIIS_MAX_VECS      400
MBIS_MAXITER       8000
guess              read
}

E, wfn = energy('b3lyp', restart_file='last_wfn', return_wfn=True)
properties('b3lyp','MBIS_CHARGES', wfn=wfn)
wfn.to_file('last_wfn')
--------------------------------------------------------------------------

    Molecular point group: d2h
  Charge       = -1
  Multiplicity = 2
  Basis Set: CC-PVTZ
    Blend: CC-PVTZ
  Basis Set: (CC-PVTZ AUX)
    Blend: CC-PVTZ-JKFIT
  @DF-UKS Final Energy:  -149.56425776611709
    Total Energy =                       -149.5642577661170662
 Dipole X            :          0.0000000            0.0000000            0.0000000
 Dipole Y            :          0.0000000            0.0000000            0.0000000
 Dipole Z            :          0.0000000            0.0000000            0.0000000
 Magnitude           :                                                    0.0000000
    Molecular point group: d2h

    Geometry (in Angstrom), charge = -1, multiplicity = 2:

       Center              X                  Y                   Z               Mass
    ------------   -----------------  -----------------  -----------------  -----------------
         O            0.000000000000     0.000000000000    -0.411230000000    15.994914619570
         O            0.000000000000     0.000000000000     0.411230000000    15.994914619570

  Charge       = -1
  Multiplicity = 2
  Basis Set: CC-PVTZ
    Blend: CC-PVTZ
  Basis Set: (CC-PVTZ AUX)
    Blend: CC-PVTZ-JKFIT

    Orbital Energies [Eh]
    ---------------------

    Alpha Occupied:

       1Ag   -18.794273     1B1u  -18.785063     2Ag    -1.278936
       1B2u   -0.368836     1B3u   -0.330677     2B1u   -0.291038
       3Ag    -0.209620     1B3g    0.298431     1B2g    0.335701

    Alpha Virtual:

       3B1u    0.630207     2B2u    0.749308     2B3u    0.769845
       4Ag     0.796894     2B3g    0.975236     2B2g    0.998607
       5Ag     1.029717     4B1u    1.453245     1B1g    1.515586
       6Ag     1.515944     5B1u    1.733601     3B2u    1.987886
       3B3u    2.017906     1Au     2.178278     6B1u    2.178742
       7Ag     2.458217     3B3g    2.624248     3B2g    2.649585
       7B1u    3.335937     4B2u    3.746128     4B3u    3.779004
       8Ag     4.362692     4B3g    4.467364     4B2g    4.502468
       8B1u    4.815499     5B2u    4.992727     5B3u    4.992737
       2B1g    5.039588     9Ag     5.040054     6B2u    5.458619
       6B3u    5.488380     5B3g    5.904137     5B2g    5.904152
      10Ag     5.984131     6B3g    6.202099     6B2g    6.230745
      11Ag     6.441955     3B1g    6.442036     9B1u    6.558830
       2Au     6.559240    12Ag     6.757643    10B1u    7.006637
       3Au     7.361298    11B1u    7.361862     7B2u    7.390937
       7B3u    7.422430    12B1u    8.807295     7B3g    9.792799
       7B2g    9.824666    13Ag    10.542931    13B1u   29.233194

    Beta Occupied:

       1Ag   -18.782601     1B1u  -18.773245     2Ag    -1.263432
       1B3u   -0.320658     1B2u   -0.302382     2B1u   -0.252134
       3Ag    -0.185165     1B2g    0.348847

    Beta Virtual:

       1B3g    0.451996     3B1u    0.637932     2B2u    0.772825
       2B3u    0.773666     4Ag     0.802610     2B2g    1.006821
       2B3g    1.028853     5Ag     1.043081     4B1u    1.471907
       1B1g    1.533474     6Ag     1.534520     5B1u    1.755593
       3B3u    2.021753     3B2u    2.025477     1Au     2.210916
       6B1u    2.212574     7Ag     2.467003     3B2g    2.654789
       3B3g    2.661442     7B1u    3.350937     4B3u    3.787591
       4B2u    3.793136     8Ag     4.374680     4B2g    4.512593
       4B3g    4.520391     8B1u    4.839265     5B3u    5.017817
       5B2u    5.017942     2B1g    5.054228     9Ag     5.055146
       6B3u    5.492888     6B2u    5.493028     5B2g    5.938105
       5B3g    5.938281    10Ag     5.997856     6B2g    6.234918
       6B3g    6.240012     3B1g    6.483305    11Ag     6.485591
       2Au     6.601127     9B1u    6.603534    12Ag     6.774131
      10B1u    7.023458     3Au     7.387240    11B1u    7.388549
       7B2u    7.426197     7B3u    7.426509    12B1u    8.821364
       7B2g    9.830515     7B3g    9.832671    13Ag    10.561963
      13B1u   29.248659

    Final Occupation by Irrep:
             Ag   B1g   B2g   B3g    Au   B1u   B2u   B3u
    DOCC [     3,    0,    1,    0,    0,    2,    1,    1 ]
    SOCC [     0,    0,    0,    1,    0,    0,    0,    0 ]
    NA   [     3,    0,    1,    1,    0,    2,    1,    1 ]
    NB   [     3,    0,    1,    0,    0,    2,    1,    1 ]

  @DF-UKS Final Energy:  -149.56425776605010

   => Energetics <=

    Nuclear Repulsion Energy =             41.1781016497823487
    One-Electron Energy =                -292.1118128552075177
    Two-Electron Energy =                 115.9045227528640680
    DFT Exchange-Correlation Energy =     -14.5350693134890179
    Empirical Dispersion Energy =           0.0000000000000000
    VV10 Nonlocal Energy =                  0.0000000000000000
    Total Energy =                       -149.5642577660501047

  UHF NO Occupations:
  HONO-2 :    2B1u 1.9998115
  HONO-1 :    1B2u 1.9997418
  HONO-0 :    1B3g 1.0000000
  LUNO+0 :    2B2u 0.0002582
  LUNO+1 :    3B1u 0.0001885
  LUNO+2 :    4 Ag 0.0001035
  LUNO+3 :    2B2g 0.0000522

Computation Completed

Properties will be evaluated at   0.000000,   0.000000,   0.000000 [a0]

Properties computed using the B3LYP density matrix

 Multipole Moments:

 ------------------------------------------------------------------------------------
     Multipole            Electronic (a.u.)      Nuclear  (a.u.)        Total (a.u.)
 ------------------------------------------------------------------------------------

 L = 1.  Multiply by 2.5417464519 to convert [e a0] to [Debye]
 Dipole X            :          0.0000000            0.0000000            0.0000000
 Dipole Y            :          0.0000000            0.0000000            0.0000000
 Dipole Z            :          0.0000000            0.0000000            0.0000000
 Magnitude           :                                                    0.0000000

 L = 2.  Multiply by 1.3450342976 to convert [e a0^2] to [Debye ang]
 Quadrupole XX       :         -9.2446572            0.0000000           -9.2446572
 Quadrupole XY       :          0.0000000            0.0000000            0.0000000
 Quadrupole XZ       :          0.0000000            0.0000000            0.0000000
 Quadrupole YY       :         -8.1459200            0.0000000           -8.1459200
 Quadrupole YZ       :          0.0000000            0.0000000            0.0000000
 Quadrupole ZZ       :        -21.1045044            9.6624508          -11.4420536
 Traceless XX        :          3.5870367           -3.2208169            0.3662197
 Traceless YY        :          4.6857739           -3.2208169            1.4649569
 Traceless ZZ        :         -8.2728105            6.4416339           -1.8311767

 ------------------------------------------------------------------------------------
  ==> Computing MBIS Charges <==

  Electron Count from Grid (Expected Number): 17.00000 (17.00000)
  Difference: -0.00000

  MBIS Charges: (a.u.)
   Center  Symbol  Z      Pop.       Charge
      1       O    8    8.500000   -0.500000
      2       O    8    8.500000   -0.500000

  MBIS Dipoles: [e a0]
   Center  Symbol  Z        X           Y           Z
      1       O    8   -0.000000    0.000000    0.397017
      2       O    8   -0.000000    0.000000   -0.397017

  MBIS Quadrupoles: [e a0^2]
   Center  Symbol  Z      XX        XY        XZ        YY        YZ        ZZ
      1       O    8   -4.6223    0.0000    0.0000   -4.0730   -0.0000   -4.8020
      2       O    8   -4.6223    0.0000   -0.0000   -4.0730    0.0000   -4.8020

  MBIS Octupoles: [e a0^3]
   Center  Symbol  Z      XXX       XXY       XXZ       XYY       XYZ       XZZ       YYY       YYZ       YZZ       ZZZ
      1       O    8   -0.0000   -0.0000    0.9436   -0.0000   -0.0000   -0.0000    0.0000    0.6618    0.0000    0.4075
      2       O    8   -0.0000   -0.0000   -0.9436   -0.0000    0.0000   -0.0000    0.0000   -0.6618    0.0000   -0.4075

  MBIS Radial Moments:
   Center  Symbol  Z      [a0^2]      [a0^3]      [a0^4]
      1       O    8   13.497311   27.634978   68.132062
      2       O    8   13.497311   27.634978   68.132062

  MBIS Valence Widths: [a0]
   Center  Symbol  Z     Width
      1       O    8    0.403218
      2       O    8    0.403218

*** tstop() called on Mac.lan at Sun Aug 10 17:27:36 2025
Module time:
	user time   =       3.87 seconds =       0.06 minutes
	system time =       2.03 seconds =       0.03 minutes
	total time  =          1 seconds =       0.02 minutes
Total time:
	user time   =      17.54 seconds =       0.29 minutes
	system time =       4.43 seconds =       0.07 minutes
	total time  =          3 seconds =       0.05 minutes

    Psi4 stopped on: Sunday, 10 August 2025 05:27PM
    Psi4 wall time for execution: 0:00:02.14

*** Psi4 exiting successfully. Buy a developer a beer!
