                               Psi4 1.9.1 release

  ==> Input File <==

--------------------------------------------------------------------------
molecule {
-1 2
C           0.000000           0.000000           0.000000
C           0.000000           0.000000           0.439780
}

set {
basis              cc-pvtz
reference          uks
maxiter            500
DAMPING_PERCENTAGE 1
E_CONVERGENCE      1.0E-8
D_CONVERGENCE      1.0E-8
DIIS_MAX_VECS      400
MBIS_MAXITER       8000
guess              read
}

E, wfn = energy('b3lyp', restart_file='last_wfn', return_wfn=True)
properties('b3lyp','MBIS_CHARGES', wfn=wfn)
wfn.to_file('last_wfn')
--------------------------------------------------------------------------

    Molecular point group: d2h
  Charge       = -1
  Multiplicity = 2
  Basis Set: CC-PVTZ
    Blend: CC-PVTZ
  Basis Set: (CC-PVTZ AUX)
    Blend: CC-PVTZ-JKFIT
  @DF-UKS Final Energy:   -69.60243228636919
    Total Energy =                        -69.6024322863691793
 Dipole X            :          0.0000000            0.0000000            0.0000000
 Dipole Y            :          0.0000000            0.0000000            0.0000000
 Dipole Z            :          0.0000000            0.0000000            0.0000000
 Magnitude           :                                                    0.0000000
    Molecular point group: d2h

    Geometry (in Angstrom), charge = -1, multiplicity = 2:

       Center              X                  Y                   Z               Mass
    ------------   -----------------  -----------------  -----------------  -----------------
         C            0.000000000000     0.000000000000    -0.219890000000    12.000000000000
         C            0.000000000000     0.000000000000     0.219890000000    12.000000000000

  Charge       = -1
  Multiplicity = 2
  Basis Set: CC-PVTZ
    Blend: CC-PVTZ
  Basis Set: (CC-PVTZ AUX)
    Blend: CC-PVTZ-JKFIT

    Orbital Energies [Eh]
    ---------------------

    Alpha Occupied:

       1Ag   -11.823091     1B1u  -10.144144     1B2u   -0.611475
       1B3u   -0.611475     2Ag    -0.473857     2B1u    0.020193
       3Ag     0.298606

    Alpha Virtual:

       3B1u    0.372044     2B2u    0.383594     2B3u    0.383594
       1B2g    0.416486     1B3g    0.416486     4Ag     0.596209
       5Ag     0.676534     1B1g    0.854368     6Ag     0.854368
       2B2g    0.871948     2B3g    0.871948     4B1u    0.978903
       3B3u    1.229172     3B2u    1.229172     5B1u    1.237921
       1Au     1.237921     6B1u    1.245366     7Ag     1.552223
       4B3u    1.570600     4B2u    1.570600     3B3g    1.664168
       3B2g    1.664168     8Ag     2.395110     2B1g    2.678284
       9Ag     2.678285     7B1u    2.732689     5B3u    2.733931
       5B2u    2.733931     8B1u    3.008469     9B1u    3.053894
       2Au     3.053894     6B2u    3.092515     6B3u    3.092515
       4B3g    3.228638     4B2g    3.228638    10Ag     3.634883
       5B3g    3.661990     5B2g    3.661990     3B1g    3.672452
      11Ag     3.672452    12Ag     3.692238     6B3g    3.718598
       6B2g    3.718598    10B1u    5.579559    13Ag     5.646326
       3Au     5.849209    11B1u    5.849210     7B2u    6.190881
       7B3u    6.190881     7B3g    7.865322     7B2g    7.865322
      12B1u    9.579684    13B1u   28.190453

    Beta Occupied:

       1Ag   -11.819158     1B1u  -10.140055     1B2u   -0.601620
       1B3u   -0.601620     2Ag    -0.467956     2B1u    0.033970

    Beta Virtual:

       2B2u    0.387722     2B3u    0.387722     3Ag     0.392180
       3B1u    0.404471     1B2g    0.435132     1B3g    0.435132
       4Ag     0.593651     5Ag     0.698141     6Ag     0.854568
       1B1g    0.854568     2B2g    0.875862     2B3g    0.875862
       4B1u    0.989009     1Au     1.240816     5B1u    1.240816
       3B3u    1.245099     3B2u    1.245099     6B1u    1.275674
       7Ag     1.569391     4B3u    1.578019     4B2u    1.578019
       3B3g    1.675894     3B2g    1.675894     8Ag     2.402745
       9Ag     2.687439     2B1g    2.687439     5B3u    2.738304
       5B2u    2.738304     7B1u    2.740287     8B1u    3.014206
       2Au     3.052403     9B1u    3.052403     6B2u    3.095979
       6B3u    3.095979     4B3g    3.232701     4B2g    3.232701
      10Ag     3.641339     5B3g    3.659275     5B2g    3.659275
       3B1g    3.671436    11Ag     3.671436    12Ag     3.694597
       6B3g    3.720687     6B2g    3.720687    10B1u    5.587510
      13Ag     5.654341     3Au     5.851292    11B1u    5.851292
       7B2u    6.199177     7B3u    6.199177     7B3g    7.866344
       7B2g    7.866344    12B1u    9.581683    13B1u   28.194734

    Final Occupation by Irrep:
             Ag   B1g   B2g   B3g    Au   B1u   B2u   B3u
    DOCC [     2,    0,    0,    0,    0,    2,    1,    1 ]
    SOCC [     1,    0,    0,    0,    0,    0,    0,    0 ]
    NA   [     3,    0,    0,    0,    0,    2,    1,    1 ]
    NB   [     2,    0,    0,    0,    0,    2,    1,    1 ]

  @DF-UKS Final Energy:   -69.60243228662233

   => Energetics <=

    Nuclear Repulsion Energy =             43.3179762247487332
    One-Electron Energy =                -171.9418197900398297
    Two-Electron Energy =                  68.7123693967623979
    DFT Exchange-Correlation Energy =      -9.6909581180936311
    Empirical Dispersion Energy =           0.0000000000000000
    VV10 Nonlocal Energy =                  0.0000000000000000
    Total Energy =                        -69.6024322866223457

  UHF NO Occupations:
  HONO-2 :    2 Ag 1.9999249
  HONO-1 :    2B1u 1.9973138
  HONO-0 :    3 Ag 1.0000000
  LUNO+0 :    3B1u 0.0026862
  LUNO+1 :    4 Ag 0.0000751
  LUNO+2 :    2B3u 0.0000070
  LUNO+3 :    2B2u 0.0000070

Computation Completed

Properties will be evaluated at   0.000000,   0.000000,   0.000000 [a0]

Properties computed using the B3LYP density matrix

 Multipole Moments:

 ------------------------------------------------------------------------------------
     Multipole            Electronic (a.u.)      Nuclear  (a.u.)        Total (a.u.)
 ------------------------------------------------------------------------------------

 L = 1.  Multiply by 2.5417464519 to convert [e a0] to [Debye]
 Dipole X            :          0.0000000            0.0000000            0.0000000
 Dipole Y            :          0.0000000            0.0000000            0.0000000
 Dipole Z            :          0.0000000            0.0000000            0.0000000
 Magnitude           :                                                    0.0000000

 L = 2.  Multiply by 1.3450342976 to convert [e a0^2] to [Debye ang]
 Quadrupole XX       :         -8.4188428            0.0000000           -8.4188428
 Quadrupole XY       :          0.0000000            0.0000000            0.0000000
 Quadrupole XZ       :          0.0000000            0.0000000            0.0000000
 Quadrupole YY       :         -8.4188428            0.0000000           -8.4188428
 Quadrupole YZ       :          0.0000000            0.0000000            0.0000000
 Quadrupole ZZ       :        -21.9215320            2.0720009          -19.8495311
 Traceless XX        :          4.5008964           -0.6906670            3.8102294
 Traceless YY        :          4.5008964           -0.6906670            3.8102294
 Traceless ZZ        :         -9.0017928            1.3813339           -7.6204589

 ------------------------------------------------------------------------------------
  ==> Computing MBIS Charges <==

  Electron Count from Grid (Expected Number): 13.00000 (13.00000)
  Difference:  0.00000

  MBIS Charges: (a.u.)
   Center  Symbol  Z      Pop.       Charge
      1       C    6    6.500001   -0.500001
      2       C    6    6.500001   -0.500001

  MBIS Dipoles: [e a0]
   Center  Symbol  Z        X           Y           Z
      1       C    6    0.000000   -0.000000    0.597327
      2       C    6   -0.000000   -0.000000   -0.597327

  MBIS Quadrupoles: [e a0^2]
   Center  Symbol  Z      XX        XY        XZ        YY        YZ        ZZ
      1       C    6   -4.2094    0.0000   -0.0000   -4.2094    0.0000   -9.3420
      2       C    6   -4.2094    0.0000   -0.0000   -4.2094   -0.0000   -9.3420

  MBIS Octupoles: [e a0^3]
   Center  Symbol  Z      XXX       XXY       XXZ       XYY       XYZ       XZZ       YYY       YYZ       YZZ       ZZZ
      1       C    6   -0.0000   -0.0000    1.5687   -0.0000   -0.0000   -0.0000   -0.0000    1.5687   -0.0000    6.4945
      2       C    6   -0.0000   -0.0000   -1.5687   -0.0000    0.0000   -0.0000   -0.0000   -1.5687   -0.0000   -6.4945

  MBIS Radial Moments:
   Center  Symbol  Z      [a0^2]      [a0^3]      [a0^4]
      1       C    6   17.760858   54.764733   206.142267
      2       C    6   17.760858   54.764733   206.142267

  MBIS Valence Widths: [a0]
   Center  Symbol  Z     Width
      1       C    6    0.537449
      2       C    6    0.537449

*** tstop() called on Mac.lan at Sun Aug 10 17:30:33 2025
Module time:
	user time   =       3.83 seconds =       0.06 minutes
	system time =       2.53 seconds =       0.04 minutes
	total time  =          0 seconds =       0.00 minutes
Total time:
	user time   =      18.40 seconds =       0.31 minutes
	system time =       4.93 seconds =       0.08 minutes
	total time  =          2 seconds =       0.03 minutes

    Psi4 stopped on: Sunday, 10 August 2025 05:30PM
    Psi4 wall time for execution: 0:00:02.27

*** Psi4 exiting successfully. Buy a developer a beer!
