                               Psi4 1.9.1 release

  ==> Input File <==

--------------------------------------------------------------------------
molecule {
-1 3
C           0.000000           0.000000           0.000000
H           0.000000           0.000000           1.024430
}

set {
basis              cc-pvtz
reference          uks
maxiter            500
DAMPING_PERCENTAGE 1
E_CONVERGENCE      1.0E-8
D_CONVERGENCE      1.0E-8
DIIS_MAX_VECS      400
MBIS_MAXITER       8000
guess              read
}

E, wfn = energy('b3lyp', restart_file='last_wfn', return_wfn=True)
properties('b3lyp','MBIS_CHARGES', wfn=wfn)
wfn.to_file('last_wfn')
--------------------------------------------------------------------------

    Molecular point group: c2v
  Charge       = -1
  Multiplicity = 3
  Basis Set: CC-PVTZ
    Blend: CC-PVTZ
  Basis Set: (CC-PVTZ AUX)
    Blend: CC-PVTZ-JKFIT
  @DF-UKS Final Energy:   -38.51897474289999
    Total Energy =                        -38.5189747428999851
 Dipole X            :          0.0000000            0.0000000            0.0000000
 Dipole Y            :          0.0000000            0.0000000            0.0000000
 Dipole Z            :         -0.2919969            0.8859638            0.5939669
 Magnitude           :                                                    0.5939669
    Molecular point group: c2v

    Geometry (in Angstrom), charge = -1, multiplicity = 3:

       Center              X                  Y                   Z               Mass
    ------------   -----------------  -----------------  -----------------  -----------------
         C            0.000000000000     0.000000000000    -0.079371162759    12.000000000000
         H            0.000000000000     0.000000000000     0.945058837241     1.007825032230

  Charge       = -1
  Multiplicity = 3
  Basis Set: CC-PVTZ
    Blend: CC-PVTZ
  Basis Set: (CC-PVTZ AUX)
    Blend: CC-PVTZ-JKFIT

    Orbital Energies [Eh]
    ---------------------

    Alpha Occupied:

       1A1    -9.859252     2A1    -0.325664     3A1     0.015414
       1B1     0.090662     1B2     0.090662

    Alpha Virtual:

       4A1     0.297419     5A1     0.542414     2B2     0.577158
       2B1     0.577158     6A1     0.644007     7A1     0.759614
       3B1     0.895921     3B2     0.895921     8A1     0.968027
       1A2     0.968027     9A1     1.267552     4B2     1.343695
       4B1     1.343695    10A1     1.829887     5B2     2.303801
       5B1     2.303801    11A1     2.310479    12A1     2.514847
      13A1     2.877379     2A2     2.877379     6B2     2.998658
       6B1     2.998658     7B1     3.003062     7B2     3.003062
      14A1     3.269889     3A2     3.269889    15A1     3.306521
       8B2     3.401187     8B1     3.401187    16A1     3.726349
      17A1     3.990062     4A2     3.990063     9B2     4.171713
       9B1     4.171713    18A1     5.118682    10B1     5.261427
      10B2     5.261427    19A1     5.340331    20A1     9.489560

    Beta Occupied:

       1A1    -9.836361     2A1    -0.258150     3A1     0.053318

    Beta Virtual:

       1B1     0.246014     1B2     0.246014     4A1     0.303177
       5A1     0.560006     2B2     0.647559     2B1     0.647559
       6A1     0.678048     7A1     0.782808     3B1     0.927798
       3B2     0.927798     1A2     1.044548     8A1     1.044548
       9A1     1.290331     4B2     1.367028     4B1     1.367028
      10A1     1.856660    11A1     2.329543     5B2     2.383317
       5B1     2.383317    12A1     2.549957    13A1     2.927216
       2A2     2.927216     6B1     3.044704     6B2     3.044704
       7B2     3.093992     7B1     3.093992    14A1     3.340734
       3A2     3.385111    15A1     3.385111     8B2     3.443937
       8B1     3.443937    16A1     3.749632    17A1     4.014981
       4A2     4.014982     9B2     4.177023     9B1     4.177023
      18A1     5.132214    10B1     5.288714    10B2     5.288714
      19A1     5.353005    20A1     9.516777

    Final Occupation by Irrep:
             A1    A2    B1    B2
    DOCC [     3,    0,    0,    0 ]
    SOCC [     0,    0,    1,    1 ]
    NA   [     3,    0,    1,    1 ]
    NB   [     3,    0,    0,    0 ]

  @DF-UKS Final Energy:   -38.51897474228951

   => Energetics <=

    Nuclear Repulsion Energy =              3.0993462354870513
    One-Electron Energy =                 -59.7496839960346122
    Two-Electron Energy =                  22.9284946285886555
    DFT Exchange-Correlation Energy =      -4.7971316103306094
    Empirical Dispersion Energy =           0.0000000000000000
    VV10 Nonlocal Energy =                  0.0000000000000000
    Total Energy =                        -38.5189747422895152

  UHF NO Occupations:
  HONO-2 :    3 A1 1.9977202
  HONO-1 :    1 B2 1.0000000
  HONO-0 :    1 B1 1.0000000
  LUNO+0 :    4 A1 0.0022798
  LUNO+1 :    5 A1 0.0003091
  LUNO+2 :    6 A1 0.0000011
  LUNO+3 :    2 B1 0.0000000

Computation Completed

Properties will be evaluated at   0.000000,   0.000000,   0.000000 [a0]

Properties computed using the B3LYP density matrix

 Multipole Moments:

 ------------------------------------------------------------------------------------
     Multipole            Electronic (a.u.)      Nuclear  (a.u.)        Total (a.u.)
 ------------------------------------------------------------------------------------

 L = 1.  Multiply by 2.5417464519 to convert [e a0] to [Debye]
 Dipole X            :          0.0000000            0.0000000            0.0000000
 Dipole Y            :          0.0000000            0.0000000            0.0000000
 Dipole Z            :         -0.2919969            0.8859638            0.5939669
 Magnitude           :                                                    0.5939669

 L = 2.  Multiply by 1.3450342976 to convert [e a0^2] to [Debye ang]
 Quadrupole XX       :         -7.9305949            0.0000000           -7.9305949
 Quadrupole XY       :          0.0000000            0.0000000            0.0000000
 Quadrupole XZ       :          0.0000000            0.0000000            0.0000000
 Quadrupole YY       :         -7.9305949            0.0000000           -7.9305949
 Quadrupole YZ       :          0.0000000            0.0000000            0.0000000
 Quadrupole ZZ       :        -11.6397894            3.3244289           -8.3153605
 Traceless XX        :          1.2363982           -1.1081430            0.1282552
 Traceless YY        :          1.2363982           -1.1081430            0.1282552
 Traceless ZZ        :         -2.4727964            2.2162859           -0.2565104

 ------------------------------------------------------------------------------------
  ==> Computing MBIS Charges <==

  Electron Count from Grid (Expected Number):  8.00000 ( 8.00000)
  Difference: -0.00000

  MBIS Charges: (a.u.)
   Center  Symbol  Z      Pop.       Charge
      1       C    6    7.093030   -1.093030
      2       H    1    0.906970    0.093030

  MBIS Dipoles: [e a0]
   Center  Symbol  Z        X           Y           Z
      1       C    6    0.000000    0.000000    0.250547
      2       H    1   -0.000000    0.000000    0.013334

  MBIS Quadrupoles: [e a0^2]
   Center  Symbol  Z      XX        XY        XZ        YY        YZ        ZZ
      1       C    6   -7.3988    0.0000    0.0000   -7.3988   -0.0000   -7.9875
      2       H    1   -0.5318    0.0000    0.0000   -0.5318    0.0000   -0.5724

  MBIS Octupoles: [e a0^3]
   Center  Symbol  Z      XXX       XXY       XXZ       XYY       XYZ       XZZ       YYY       YYZ       YZZ       ZZZ
      1       C    6    0.0000    0.0000    0.4472    0.0000   -0.0000   -0.0000    0.0000    0.4472   -0.0000   -0.2926
      2       H    1   -0.0000    0.0000   -0.0180   -0.0000    0.0000   -0.0000    0.0000   -0.0180    0.0000   -0.0715

  MBIS Radial Moments:
   Center  Symbol  Z      [a0^2]      [a0^3]      [a0^4]
      1       C    6   22.785197   65.265358   219.399095
      2       H    1    1.635946    3.186976    7.460464

  MBIS Valence Widths: [a0]
   Center  Symbol  Z     Width
      1       C    6    0.599042
      2       H    1    0.387616

*** tstop() called on Mac.lan at Sun Aug 10 17:34:45 2025
Module time:
	user time   =       3.00 seconds =       0.05 minutes
	system time =       2.19 seconds =       0.04 minutes
	total time  =          1 seconds =       0.02 minutes
Total time:
	user time   =      12.93 seconds =       0.22 minutes
	system time =       3.55 seconds =       0.06 minutes
	total time  =          2 seconds =       0.03 minutes

    Psi4 stopped on: Sunday, 10 August 2025 05:34PM
    Psi4 wall time for execution: 0:00:01.60

*** Psi4 exiting successfully. Buy a developer a beer!
