                               Psi4 1.9.1 release

  ==> Input File <==

--------------------------------------------------------------------------
molecule {
-1 3
O           0.000000           0.000000           0.000000
N           0.000000           0.000000           1.486531
}

set {
basis              cc-pvtz
reference          uks
maxiter            500
DAMPING_PERCENTAGE 1
E_CONVERGENCE      1.0E-8
D_CONVERGENCE      1.0E-8
DIIS_MAX_VECS      400
MBIS_MAXITER       8000
guess              read
}

E, wfn = energy('b3lyp', restart_file='last_wfn', return_wfn=True)
properties('b3lyp','MBIS_CHARGES', wfn=wfn)
wfn.to_file('last_wfn')
--------------------------------------------------------------------------

    Molecular point group: c2v
  Charge       = -1
  Multiplicity = 3
  Basis Set: CC-PVTZ
    Blend: CC-PVTZ
  Basis Set: (CC-PVTZ AUX)
    Blend: CC-PVTZ-JKFIT
  @DF-UKS Final Energy:  -129.89988191211788
    Total Energy =                       -129.8998819121178769
 Dipole X            :          0.0000000            0.0000000            0.0000000
 Dipole Y            :          0.0000000            0.0000000            0.0000000
 Dipole Z            :         -0.0486660           -0.0056364           -0.0543024
 Magnitude           :                                                    0.0543024
    Molecular point group: c2v

    Geometry (in Angstrom), charge = -1, multiplicity = 3:

       Center              X                  Y                   Z               Mass
    ------------   -----------------  -----------------  -----------------  -----------------
         O            0.000000000000     0.000000000000    -0.693913310782    15.994914619570
         N            0.000000000000     0.000000000000     0.792617689218    14.003074004430

  Charge       = -1
  Multiplicity = 3
  Basis Set: CC-PVTZ
    Blend: CC-PVTZ
  Basis Set: (CC-PVTZ AUX)
    Blend: CC-PVTZ-JKFIT

    Orbital Energies [Eh]
    ---------------------

    Alpha Occupied:

       1A1   -18.844009     2A1   -14.076024     3A1    -0.674282
       4A1    -0.387377     5A1    -0.081572     1B2    -0.078523
       1B1    -0.078523     2B1     0.067433     2B2     0.067433

    Alpha Virtual:

       6A1     0.377245     7A1     0.698404     3B1     0.722229
       3B2     0.722229     8A1     0.788068     9A1     0.885290
       4B1     0.899943     4B2     0.899943    10A1     1.289479
       1A2     1.289479     5B1     1.343724     5B2     1.343724
      11A1     1.444511     2A2     1.811800    12A1     1.811800
      13A1     1.822575     6B1     2.154746     6B2     2.154746
      14A1     2.358736     7B1     3.114519     7B2     3.114519
      15A1     3.379600     8B2     3.821111     8B1     3.821111
      16A1     4.011517    17A1     4.143926     3A2     4.143926
       9B2     4.157933     9B1     4.157933    10B2     4.310302
      10B1     4.310302    18A1     4.625249    19A1     4.687462
       4A2     4.687472    11B1     4.886000    11B2     4.886000
      20A1     5.256376    12B1     5.436043    12B2     5.436043
      21A1     5.528942     5A2     5.528944    22A1     5.540679
      13B1     5.970853    13B2     5.970853     6A2     6.511181
      23A1     6.511218    24A1     6.516402    14B1     6.878424
      14B2     6.878424    25A1     7.720150    26A1     8.707858

    Beta Occupied:

       1A1   -18.827211     2A1   -14.045346     3A1    -0.629894
       4A1    -0.302993     5A1    -0.054493     1B1    -0.002156
       1B2    -0.002156

    Beta Virtual:

       2B1     0.235721     2B2     0.235721     6A1     0.408819
       7A1     0.714181     3B1     0.779099     3B2     0.779099
       8A1     0.815297     9A1     0.900364     4B1     0.927618
       4B2     0.927618     1A2     1.350718    10A1     1.350719
       5B1     1.371918     5B2     1.371918    11A1     1.464849
      12A1     1.845257     2A2     1.845258    13A1     1.850375
       6B1     2.180550     6B2     2.180550    14A1     2.375707
       7B1     3.198843     7B2     3.198843    15A1     3.399946
       8B2     3.864240     8B1     3.864240    16A1     4.047655
      17A1     4.201072     3A2     4.201073     9B2     4.250125
       9B1     4.250125    10B2     4.351581    10B1     4.351581
      18A1     4.651523    19A1     4.812378     4A2     4.812387
      11B1     4.950478    11B2     4.950478    20A1     5.309376
      12B1     5.476706    12B2     5.476706    21A1     5.557395
       5A2     5.557397    22A1     5.569548    13B1     5.995991
      13B2     5.995991    23A1     6.533900     6A2     6.572683
      24A1     6.572718    14B1     6.909781    14B2     6.909781
      25A1     7.748439    26A1     8.737622

    Final Occupation by Irrep:
             A1    A2    B1    B2
    DOCC [     5,    0,    1,    1 ]
    SOCC [     0,    0,    1,    1 ]
    NA   [     5,    0,    2,    2 ]
    NB   [     5,    0,    1,    1 ]

  @DF-UKS Final Energy:  -129.89988191170539

   => Energetics <=

    Nuclear Repulsion Energy =             19.9349517753212027
    One-Electron Energy =                -222.6746493531171041
    Two-Electron Energy =                  85.4196883713312189
    DFT Exchange-Correlation Energy =     -12.5798727052407120
    Empirical Dispersion Energy =           0.0000000000000000
    VV10 Nonlocal Energy =                  0.0000000000000000
    Total Energy =                       -129.8998819117053927

  UHF NO Occupations:
  HONO-2 :    1 B1 1.9983042
  HONO-1 :    2 B1 1.0000000
  HONO-0 :    2 B2 1.0000000
  LUNO+0 :    3 B2 0.0016958
  LUNO+1 :    3 B1 0.0016958
  LUNO+2 :    6 A1 0.0013722
  LUNO+3 :    7 A1 0.0002480

Computation Completed

Properties will be evaluated at   0.000000,   0.000000,   0.000000 [a0]

Properties computed using the B3LYP density matrix

 Multipole Moments:

 ------------------------------------------------------------------------------------
     Multipole            Electronic (a.u.)      Nuclear  (a.u.)        Total (a.u.)
 ------------------------------------------------------------------------------------

 L = 1.  Multiply by 2.5417464519 to convert [e a0] to [Debye]
 Dipole X            :          0.0000000            0.0000000            0.0000000
 Dipole Y            :          0.0000000            0.0000000            0.0000000
 Dipole Z            :         -0.0486660           -0.0056364           -0.0543024
 Magnitude           :                                                    0.0543024

 L = 2.  Multiply by 1.3450342976 to convert [e a0^2] to [Debye ang]
 Quadrupole XX       :         -9.7773611            0.0000000           -9.7773611
 Quadrupole XY       :          0.0000000            0.0000000            0.0000000
 Quadrupole XZ       :          0.0000000            0.0000000            0.0000000
 Quadrupole YY       :         -9.7773611            0.0000000           -9.7773611
 Quadrupole YZ       :          0.0000000            0.0000000            0.0000000
 Quadrupole ZZ       :        -41.8236113           29.4606602          -12.3629512
 Traceless XX        :         10.6820834           -9.8202201            0.8618634
 Traceless YY        :         10.6820834           -9.8202201            0.8618634
 Traceless ZZ        :        -21.3641668           19.6404401           -1.7237267

 ------------------------------------------------------------------------------------
  ==> Computing MBIS Charges <==

  Electron Count from Grid (Expected Number): 16.00000 (16.00000)
  Difference: -0.00000

  MBIS Charges: (a.u.)
   Center  Symbol  Z      Pop.       Charge
      1       O    8    8.546240   -0.546240
      2       N    7    7.453759   -0.453759

  MBIS Dipoles: [e a0]
   Center  Symbol  Z        X           Y           Z
      1       O    8    0.000000   -0.000000    0.113232
      2       N    7    0.000000   -0.000000   -0.204168

  MBIS Quadrupoles: [e a0^2]
   Center  Symbol  Z      XX        XY        XZ        YY        YZ        ZZ
      1       O    8   -4.6569   -0.0000    0.0000   -4.6569   -0.0000   -4.4647
      2       N    7   -5.1204    0.0000    0.0000   -5.1204   -0.0000   -5.0324

  MBIS Octupoles: [e a0^3]
   Center  Symbol  Z      XXX       XXY       XXZ       XYY       XYZ       XZZ       YYY       YYZ       YZZ       ZZZ
      1       O    8   -0.0000   -0.0000    0.1218   -0.0000    0.0000   -0.0000    0.0000    0.1218    0.0000   -0.0962
      2       N    7   -0.0000   -0.0000   -0.1592   -0.0000   -0.0000   -0.0000   -0.0000   -0.1592   -0.0000    0.2190

  MBIS Radial Moments:
   Center  Symbol  Z      [a0^2]      [a0^3]      [a0^4]
      1       O    8   13.778525   27.656869   66.196506
      2       N    7   15.273286   34.792365   93.836219

  MBIS Valence Widths: [a0]
   Center  Symbol  Z     Width
      1       O    8    0.409332
      2       N    7    0.472228

*** tstop() called on Mac.lan at Sun Aug 10 17:47:08 2025
Module time:
	user time   =       5.02 seconds =       0.08 minutes
	system time =       2.55 seconds =       0.04 minutes
	total time  =          0 seconds =       0.00 minutes
Total time:
	user time   =      20.43 seconds =       0.34 minutes
	system time =       4.73 seconds =       0.08 minutes
	total time  =          2 seconds =       0.03 minutes

    Psi4 stopped on: Sunday, 10 August 2025 05:47PM
    Psi4 wall time for execution: 0:00:02.43

*** Psi4 exiting successfully. Buy a developer a beer!
