                               Psi4 1.9.1 release

  ==> Input File <==

--------------------------------------------------------------------------
molecule {
-1 3
C           0.000000           0.000000           0.000000
H           0.000000           0.000000           1.564840
}

set {
basis              cc-pvtz
reference          uks
maxiter            500
DAMPING_PERCENTAGE 1
E_CONVERGENCE      1.0E-8
D_CONVERGENCE      1.0E-8
DIIS_MAX_VECS      400
MBIS_MAXITER       8000
guess              read
}

E, wfn = energy('b3lyp', restart_file='last_wfn', return_wfn=True)
properties('b3lyp','MBIS_CHARGES', wfn=wfn)
wfn.to_file('last_wfn')
--------------------------------------------------------------------------

    Molecular point group: c2v
  Charge       = -1
  Multiplicity = 3
  Basis Set: CC-PVTZ
    Blend: CC-PVTZ
  Basis Set: (CC-PVTZ AUX)
    Blend: CC-PVTZ-JKFIT
  @DF-UKS Final Energy:   -38.49738146094491
    Total Energy =                        -38.4973814609449079
 Dipole X            :          0.0000000            0.0000000            0.0000000
 Dipole Y            :          0.0000000            0.0000000            0.0000000
 Dipole Z            :         -1.7301672            1.3533298           -0.3768375
 Magnitude           :                                                    0.3768375
    Molecular point group: c2v

    Geometry (in Angstrom), charge = -1, multiplicity = 3:

       Center              X                  Y                   Z               Mass
    ------------   -----------------  -----------------  -----------------  -----------------
         C            0.000000000000     0.000000000000    -0.121241246675    12.000000000000
         H            0.000000000000     0.000000000000     1.443598753325     1.007825032230

  Charge       = -1
  Multiplicity = 3
  Basis Set: CC-PVTZ
    Blend: CC-PVTZ
  Basis Set: (CC-PVTZ AUX)
    Blend: CC-PVTZ-JKFIT

    Orbital Energies [Eh]
    ---------------------

    Alpha Occupied:

       1A1    -9.931750     2A1    -0.270510     3A1    -0.000015
       1B1     0.064459     1B2     0.064459

    Alpha Virtual:

       4A1     0.252765     5A1     0.511325     2B2     0.557262
       2B1     0.557262     6A1     0.578490     7A1     0.719550
       3B1     0.829996     3B2     0.829996     1A2     0.949451
       8A1     0.949451     9A1     1.116733     4B1     1.196418
       4B2     1.196418    10A1     1.467138     5B1     2.235074
       5B2     2.235074    11A1     2.403687    12A1     2.742683
       6B1     2.868481     6B2     2.868481    13A1     2.917874
      14A1     2.936173     2A2     2.936173     7B2     2.968702
       7B1     2.968702     3A2     3.220692    15A1     3.220692
       8B1     3.304379     8B2     3.304379    16A1     3.530288
      17A1     3.575766     4A2     3.575769     9B2     3.916362
       9B1     3.916362    18A1     3.922317    10B1     4.200814
      10B2     4.200814    19A1     4.396192    20A1     5.595673

    Beta Occupied:

       1A1    -9.906590     2A1    -0.183497     3A1     0.018868

    Beta Virtual:

       1B1     0.226905     1B2     0.226905     4A1     0.270471
       5A1     0.514026     6A1     0.597848     2B1     0.628003
       2B2     0.628003     7A1     0.767260     3B1     0.848615
       3B2     0.848615     1A2     1.025902     8A1     1.025902
       9A1     1.136954     4B1     1.221862     4B2     1.221862
      10A1     1.476924     5B1     2.314563     5B2     2.314563
      11A1     2.423308    12A1     2.743019     6B1     2.905815
       6B2     2.905815    13A1     2.952215    14A1     2.996130
       2A2     2.996130     7B2     3.065187     7B1     3.065187
       3A2     3.338222    15A1     3.338222     8B2     3.370739
       8B1     3.370739    16A1     3.566981    17A1     3.580509
       4A2     3.580512     9B2     3.913025     9B1     3.913025
      18A1     3.957507    10B1     4.205849    10B2     4.205849
      19A1     4.393790    20A1     5.615622

    Final Occupation by Irrep:
             A1    A2    B1    B2
    DOCC [     3,    0,    0,    0 ]
    SOCC [     0,    0,    1,    1 ]
    NA   [     3,    0,    1,    1 ]
    NB   [     3,    0,    0,    0 ]

  @DF-UKS Final Energy:   -38.49738146074533

   => Energetics <=

    Nuclear Repulsion Energy =              2.0290018557935636
    One-Electron Energy =                 -57.5271640685100039
    Two-Electron Energy =                  21.6876960689819605
    DFT Exchange-Correlation Energy =      -4.6869153170108611
    Empirical Dispersion Energy =           0.0000000000000000
    VV10 Nonlocal Energy =                  0.0000000000000000
    Total Energy =                        -38.4973814607453306

  UHF NO Occupations:
  HONO-2 :    3 A1 1.9963325
  HONO-1 :    1 B1 1.0000000
  HONO-0 :    1 B2 1.0000000
  LUNO+0 :    4 A1 0.0036675
  LUNO+1 :    5 A1 0.0010369
  LUNO+2 :    6 A1 0.0000011
  LUNO+3 :    7 A1 0.0000000

Computation Completed

Properties will be evaluated at   0.000000,   0.000000,   0.000000 [a0]

Properties computed using the B3LYP density matrix

 Multipole Moments:

 ------------------------------------------------------------------------------------
     Multipole            Electronic (a.u.)      Nuclear  (a.u.)        Total (a.u.)
 ------------------------------------------------------------------------------------

 L = 1.  Multiply by 2.5417464519 to convert [e a0] to [Debye]
 Dipole X            :          0.0000000            0.0000000            0.0000000
 Dipole Y            :          0.0000000            0.0000000            0.0000000
 Dipole Z            :         -1.7301672            1.3533298           -0.3768375
 Magnitude           :                                                    0.3768375

 L = 2.  Multiply by 1.3450342976 to convert [e a0^2] to [Debye ang]
 Quadrupole XX       :         -8.2563024            0.0000000           -8.2563024
 Quadrupole XY       :          0.0000000            0.0000000            0.0000000
 Quadrupole XZ       :          0.0000000            0.0000000            0.0000000
 Quadrupole YY       :         -8.2563024            0.0000000           -8.2563024
 Quadrupole YZ       :          0.0000000            0.0000000            0.0000000
 Quadrupole ZZ       :        -18.2041456            7.7569742          -10.4471714
 Traceless XX        :          3.3159477           -2.5856581            0.7302897
 Traceless YY        :          3.3159477           -2.5856581            0.7302897
 Traceless ZZ        :         -6.6318955            5.1713161           -1.4605793

 ------------------------------------------------------------------------------------
  ==> Computing MBIS Charges <==

  Electron Count from Grid (Expected Number):  8.00000 ( 8.00000)
  Difference: -0.00000

  MBIS Charges: (a.u.)
   Center  Symbol  Z      Pop.       Charge
      1       C    6    6.737748   -0.737748
      2       H    1    1.262252   -0.262252

  MBIS Dipoles: [e a0]
   Center  Symbol  Z        X           Y           Z
      1       C    6   -0.000000   -0.000000    0.189118
      2       H    1   -0.000000    0.000000   -0.019558

  MBIS Quadrupoles: [e a0^2]
   Center  Symbol  Z      XX        XY        XZ        YY        YZ        ZZ
      1       C    6   -6.7808    0.0000    0.0000   -6.7808    0.0000   -6.7407
      2       H    1   -1.4755   -0.0000   -0.0000   -1.4755    0.0000   -1.5227

  MBIS Octupoles: [e a0^3]
   Center  Symbol  Z      XXX       XXY       XXZ       XYY       XYZ       XZZ       YYY       YYZ       YZZ       ZZZ
      1       C    6   -0.0000   -0.0000    0.1368   -0.0000   -0.0000   -0.0000   -0.0000    0.1368   -0.0000   -0.7321
      2       H    1   -0.0000    0.0000   -0.1141   -0.0000   -0.0000   -0.0000    0.0000   -0.1141    0.0000   -0.1846

  MBIS Radial Moments:
   Center  Symbol  Z      [a0^2]      [a0^3]      [a0^4]
      1       C    6   20.302292   56.811153   187.811973
      2       H    1    4.473707   12.107225   38.603863

  MBIS Valence Widths: [a0]
   Center  Symbol  Z     Width
      1       C    6    0.585203
      2       H    1    0.541732

*** tstop() called on Mac.lan at Sun Aug 10 17:36:24 2025
Module time:
	user time   =       2.92 seconds =       0.05 minutes
	system time =       1.29 seconds =       0.02 minutes
	total time  =          1 seconds =       0.02 minutes
Total time:
	user time   =      14.04 seconds =       0.23 minutes
	system time =       3.50 seconds =       0.06 minutes
	total time  =          2 seconds =       0.03 minutes

    Psi4 stopped on: Sunday, 10 August 2025 05:36PM
    Psi4 wall time for execution: 0:00:01.71

*** Psi4 exiting successfully. Buy a developer a beer!
