                               Psi4 1.9.1 release

  ==> Input File <==

--------------------------------------------------------------------------
molecule {
-1 3
O           0.000000           0.000000           0.000000
N           0.000000           0.000000           1.158924
}

set {
basis              cc-pvtz
reference          uks
maxiter            500
DAMPING_PERCENTAGE 1
E_CONVERGENCE      1.0E-8
D_CONVERGENCE      1.0E-8
DIIS_MAX_VECS      400
MBIS_MAXITER       8000
guess              SAP
}

E, wfn = energy('b3lyp', return_wfn=True)
properties('b3lyp','MBIS_CHARGES', wfn=wfn)
wfn.to_file('last_wfn')
--------------------------------------------------------------------------

    Molecular point group: c2v
  Charge       = -1
  Multiplicity = 3
  Basis Set: CC-PVTZ
    Blend: CC-PVTZ
  Basis Set: (CC-PVTZ AUX)
    Blend: CC-PVTZ-JKFIT
  @DF-UKS Final Energy:  -129.91476448258445
    Total Energy =                       -129.9147644825844452
 Dipole X            :          0.0000000            0.0000000            0.0000000
 Dipole Y            :          0.0000000            0.0000000            0.0000000
 Dipole Z            :         -0.3982564           -0.0043942           -0.4026507
 Magnitude           :                                                    0.4026507
    Molecular point group: c2v

    Geometry (in Angstrom), charge = -1, multiplicity = 3:

       Center              X                  Y                   Z               Mass
    ------------   -----------------  -----------------  -----------------  -----------------
         O            0.000000000000     0.000000000000    -0.540986222140    15.994914619570
         N            0.000000000000     0.000000000000     0.617937777860    14.003074004430

  Charge       = -1
  Multiplicity = 3
  Basis Set: CC-PVTZ
    Blend: CC-PVTZ
  Basis Set: (CC-PVTZ AUX)
    Blend: CC-PVTZ-JKFIT

    Orbital Energies [Eh]
    ---------------------

    Alpha Occupied:

       1A1   -18.833377     2A1   -14.005268     3A1    -0.839254
       4A1    -0.316851     1B2    -0.148621     1B1    -0.148621
       5A1    -0.105901     2B2     0.162140     2B1     0.162140

    Alpha Virtual:

       6A1     0.520785     3B1     0.723480     3B2     0.723480
       7A1     0.753727     8A1     0.842433     4B1     0.898482
       4B2     0.898482     9A1     0.928507     1A2     1.280146
      10A1     1.280146     5B2     1.483279     5B1     1.483279
      11A1     1.496287    12A1     1.871529     2A2     1.871530
      13A1     1.982073     6B2     2.342905     6B1     2.342905
      14A1     2.550187     7B1     3.200292     7B2     3.200292
      15A1     3.452041     8B1     3.909866     8B2     3.909866
       3A2     4.148025    16A1     4.148025     9B2     4.168031
       9B1     4.168031    17A1     4.284460    10B1     4.442103
      10B2     4.442103    18A1     4.657534     4A2     4.751213
      19A1     4.751216    11B2     5.111591    11B1     5.111591
      20A1     5.148393    12B1     5.432856    12B2     5.432856
       5A2     5.907451    21A1     5.907452    22A1     6.540513
       6A2     6.540527    23A1     6.633142    13B1     6.763978
      13B2     6.763978    14B2     7.279117    14B1     7.279117
      24A1     7.308201    25A1     7.503029    26A1    13.453958

    Beta Occupied:

       1A1   -18.813325     2A1   -13.978575     3A1    -0.799207
       4A1    -0.249724     1B2    -0.074383     1B1    -0.074383
       5A1    -0.062185

    Beta Virtual:

       2B2     0.326655     2B1     0.326655     6A1     0.532961
       3B1     0.768985     3B2     0.768985     7A1     0.779046
       8A1     0.865423     4B1     0.935393     4B2     0.935393
       9A1     0.961500    10A1     1.329488     1A2     1.329488
      11A1     1.515794     5B2     1.516049     5B1     1.516049
       2A2     1.916104    12A1     1.916105    13A1     2.008490
       6B2     2.374088     6B1     2.374088    14A1     2.574254
       7B1     3.274935     7B2     3.274935    15A1     3.478381
       8B2     3.960371     8B1     3.960371     3A2     4.189477
      16A1     4.189477     9B2     4.247650     9B1     4.247650
      17A1     4.317997    10B1     4.480551    10B2     4.480551
      18A1     4.690614     4A2     4.862006    19A1     4.862009
      11B2     5.156690    11B1     5.156690    20A1     5.179599
      12B1     5.480437    12B2     5.480437     5A2     5.944129
      21A1     5.944130    22A1     6.611259     6A2     6.611272
      23A1     6.656292    13B1     6.803596    13B2     6.803596
      14B2     7.310096    14B1     7.310096    24A1     7.339461
      25A1     7.530742    26A1    13.488749

    Final Occupation by Irrep:
             A1    A2    B1    B2
    DOCC [     5,    0,    1,    1 ]
    SOCC [     0,    0,    1,    1 ]
    NA   [     5,    0,    2,    2 ]
    NB   [     5,    0,    1,    1 ]

  @DF-UKS Final Energy:  -129.91476448258445

   => Energetics <=

    Nuclear Repulsion Energy =             25.5702046014406434
    One-Electron Energy =                -233.6886833822488825
    Two-Electron Energy =                  90.9489678222973055
    DFT Exchange-Correlation Energy =     -12.7452535240735312
    Empirical Dispersion Energy =           0.0000000000000000
    VV10 Nonlocal Energy =                  0.0000000000000000
    Total Energy =                       -129.9147644825844452

  UHF NO Occupations:
  HONO-2 :    1 B1 1.9989038
  HONO-1 :    2 B2 1.0000000
  HONO-0 :    2 B1 1.0000000
  LUNO+0 :    3 B1 0.0010962
  LUNO+1 :    3 B2 0.0010962
  LUNO+2 :    6 A1 0.0010059
  LUNO+3 :    7 A1 0.0001997

Computation Completed

Properties will be evaluated at   0.000000,   0.000000,   0.000000 [a0]

Properties computed using the B3LYP density matrix

 Multipole Moments:

 ------------------------------------------------------------------------------------
     Multipole            Electronic (a.u.)      Nuclear  (a.u.)        Total (a.u.)
 ------------------------------------------------------------------------------------

 L = 1.  Multiply by 2.5417464519 to convert [e a0] to [Debye]
 Dipole X            :          0.0000000            0.0000000            0.0000000
 Dipole Y            :          0.0000000            0.0000000            0.0000000
 Dipole Z            :         -0.3982564           -0.0043942           -0.4026507
 Magnitude           :                                                    0.4026507

 L = 2.  Multiply by 1.3450342976 to convert [e a0^2] to [Debye ang]
 Quadrupole XX       :         -9.4874066            0.0000000           -9.4874066
 Quadrupole XY       :          0.0000000            0.0000000            0.0000000
 Quadrupole XZ       :          0.0000000            0.0000000            0.0000000
 Quadrupole YY       :         -9.4874066            0.0000000           -9.4874066
 Quadrupole YZ       :          0.0000000            0.0000000            0.0000000
 Quadrupole ZZ       :        -30.0659586           17.9062419          -12.1597167
 Traceless XX        :          6.8595173           -5.9687473            0.8907700
 Traceless YY        :          6.8595173           -5.9687473            0.8907700
 Traceless ZZ        :        -13.7190346           11.9374946           -1.7815400

 ------------------------------------------------------------------------------------
  ==> Computing MBIS Charges <==

  Electron Count from Grid (Expected Number): 16.00000 (16.00000)
  Difference:  0.00000

  MBIS Charges: (a.u.)
   Center  Symbol  Z      Pop.       Charge
      1       O    8    8.383808   -0.383808
      2       N    7    7.616193   -0.616193

  MBIS Dipoles: [e a0]
   Center  Symbol  Z        X           Y           Z
      1       O    8   -0.000000   -0.000000    0.225452
      2       N    7    0.000000    0.000000   -0.300925

  MBIS Quadrupoles: [e a0^2]
   Center  Symbol  Z      XX        XY        XZ        YY        YZ        ZZ
      1       O    8   -4.1848   -0.0000    0.0000   -4.1848   -0.0000   -4.3636
      2       N    7   -5.3026    0.0000    0.0000   -5.3026    0.0000   -5.3910

  MBIS Octupoles: [e a0^3]
   Center  Symbol  Z      XXX       XXY       XXZ       XYY       XYZ       XZZ       YYY       YYZ       YZZ       ZZZ
      1       O    8   -0.0000   -0.0000    0.3080   -0.0000   -0.0000   -0.0000   -0.0000    0.3080    0.0000    0.2925
      2       N    7    0.0000   -0.0000   -0.4979    0.0000    0.0000    0.0000    0.0000   -0.4979    0.0000    0.0844

  MBIS Radial Moments:
   Center  Symbol  Z      [a0^2]      [a0^3]      [a0^4]
      1       O    8   12.733142   24.919260   58.438872
      2       N    7   15.996251   36.916148   100.826438

  MBIS Valence Widths: [a0]
   Center  Symbol  Z     Width
      1       O    8    0.397365
      2       N    7    0.476099

*** tstop() called on Mac.lan at Sun Aug 10 17:46:39 2025
Module time:
	user time   =      15.66 seconds =       0.26 minutes
	system time =       2.26 seconds =       0.04 minutes
	total time  =          2 seconds =       0.03 minutes
Total time:
	user time   =      31.24 seconds =       0.52 minutes
	system time =       4.64 seconds =       0.08 minutes
	total time  =          4 seconds =       0.07 minutes

    Psi4 stopped on: Sunday, 10 August 2025 05:46PM
    Psi4 wall time for execution: 0:00:03.43

*** Psi4 exiting successfully. Buy a developer a beer!
