                               Psi4 1.9.1 release

  ==> Input File <==

--------------------------------------------------------------------------
molecule {
-1 2
O           0.000000           0.000000           0.000000
C           0.000000           0.000000           1.575588
}

set {
basis              cc-pvtz
reference          uks
maxiter            500
DAMPING_PERCENTAGE 1
E_CONVERGENCE      1.0E-8
D_CONVERGENCE      1.0E-8
DIIS_MAX_VECS      400
MBIS_MAXITER       8000
guess              read
}

E, wfn = energy('b3lyp', restart_file='last_wfn', return_wfn=True)
properties('b3lyp','MBIS_CHARGES', wfn=wfn)
wfn.to_file('last_wfn')
--------------------------------------------------------------------------

    Molecular point group: c2v
  Charge       = -1
  Multiplicity = 2
  Basis Set: CC-PVTZ
    Blend: CC-PVTZ
  Basis Set: (CC-PVTZ AUX)
    Blend: CC-PVTZ-JKFIT
  @DF-UKS Final Energy:  -113.20615111140692
    Total Energy =                       -113.2061511114069248
 Dipole X            :          0.0000000            0.0000000            0.0000000
 Dipole Y            :          0.0000000            0.0000000            0.0000000
 Dipole Z            :         -0.2606164           -0.0032452           -0.2638616
 Magnitude           :                                                    0.2638616
    Molecular point group: c2v

    Geometry (in Angstrom), charge = -1, multiplicity = 2:

       Center              X                  Y                   Z               Mass
    ------------   -----------------  -----------------  -----------------  -----------------
         O            0.000000000000     0.000000000000    -0.675374662039    15.994914619570
         C            0.000000000000     0.000000000000     0.900213337961    12.000000000000

  Charge       = -1
  Multiplicity = 2
  Basis Set: CC-PVTZ
    Blend: CC-PVTZ
  Basis Set: (CC-PVTZ AUX)
    Blend: CC-PVTZ-JKFIT

    Orbital Energies [Eh]
    ---------------------

    Alpha Occupied:

       1A1   -18.853103     2A1    -9.990257     3A1    -0.630862
       4A1    -0.257784     1B1    -0.055959     5A1    -0.049719
       1B2    -0.033834     2B1     0.090220

    Alpha Virtual:

       2B2     0.180806     6A1     0.349766     3B1     0.544235
       3B2     0.559356     7A1     0.567035     8A1     0.596779
       9A1     0.823251     4B1     0.894442     4B2     0.897846
       1A2     0.930217    10A1     0.932972     5B1     1.043621
       5B2     1.044279    11A1     1.286159    12A1     1.506550
       2A2     1.785967    13A1     1.786486     6B1     1.956753
       6B2     1.959146    14A1     2.166797     7B1     2.274874
       7B2     2.289443    15A1     2.593787     8B1     2.945215
       8B2     2.946106     3A2     2.983824    16A1     2.986366
       9B1     3.135029     9B2     3.141138    17A1     3.169150
       4A2     3.213129    18A1     3.219630    10B1     3.408500
      10B2     3.416186    19A1     3.506045    11B1     4.012729
      11B2     4.016967    20A1     4.021128    21A1     5.109794
      12B1     5.435701    12B2     5.435737     5A2     5.486468
      22A1     5.486887    13B2     5.734565    13B1     5.737637
      23A1     6.133754     6A2     6.518793    24A1     6.519844
      14B1     6.831377    14B2     6.833548    25A1     7.422169
      26A1     8.573578

    Beta Occupied:

       1A1   -18.848170     2A1    -9.977503     3A1    -0.618725
       4A1    -0.221276     5A1    -0.036348     1B2    -0.032401
       1B1    -0.009588

    Beta Virtual:

       2B2     0.193743     2B1     0.228139     6A1     0.360851
       3B2     0.568960     7A1     0.575927     3B1     0.594354
       8A1     0.614251     9A1     0.828006     4B2     0.897232
       4B1     0.911845     1A2     0.964356    10A1     0.964581
       5B2     1.046839     5B1     1.068256    11A1     1.297076
      12A1     1.510833     2A2     1.794617    13A1     1.794723
       6B2     1.960130     6B1     1.979392    14A1     2.175615
       7B2     2.301134     7B1     2.335445    15A1     2.608715
       8B2     2.992546     8B1     2.992700    16A1     3.012847
       3A2     3.013470     9B2     3.147264     9B1     3.175940
      17A1     3.183422    18A1     3.276065     4A2     3.276477
      10B2     3.420577    10B1     3.451502    19A1     3.525759
      11B2     4.017013    20A1     4.034299    11B1     4.038287
      21A1     5.118597    12B2     5.446827    12B1     5.446833
       5A2     5.493782    22A1     5.493970    13B2     5.733518
      13B1     5.750892    23A1     6.140180     6A2     6.536964
      24A1     6.537051    14B2     6.831937    14B1     6.851255
      25A1     7.428873    26A1     8.582494

    Final Occupation by Irrep:
             A1    A2    B1    B2
    DOCC [     5,    0,    1,    1 ]
    SOCC [     0,    0,    1,    0 ]
    NA   [     5,    0,    2,    1 ]
    NB   [     5,    0,    1,    1 ]

  @DF-UKS Final Energy:  -113.20615111137960

   => Energetics <=

    Nuclear Repulsion Energy =             16.1212868542791661
    One-Electron Energy =                -190.9929721212387790
    Two-Electron Energy =                  72.9699609827857500
    DFT Exchange-Correlation Energy =     -11.3044268272057327
    Empirical Dispersion Energy =           0.0000000000000000
    VV10 Nonlocal Energy =                  0.0000000000000000
    Total Energy =                       -113.2061511113795973

  UHF NO Occupations:
  HONO-2 :    5 A1 1.9989684
  HONO-1 :    1 B2 1.9987833
  HONO-0 :    2 B1 1.0000000
  LUNO+0 :    2 B2 0.0012167
  LUNO+1 :    6 A1 0.0010316
  LUNO+2 :    3 B1 0.0009540
  LUNO+3 :    7 A1 0.0000711

Computation Completed

Properties will be evaluated at   0.000000,   0.000000,   0.000000 [a0]

Properties computed using the B3LYP density matrix

 Multipole Moments:

 ------------------------------------------------------------------------------------
     Multipole            Electronic (a.u.)      Nuclear  (a.u.)        Total (a.u.)
 ------------------------------------------------------------------------------------

 L = 1.  Multiply by 2.5417464519 to convert [e a0] to [Debye]
 Dipole X            :          0.0000000            0.0000000            0.0000000
 Dipole Y            :          0.0000000            0.0000000            0.0000000
 Dipole Z            :         -0.2606164           -0.0032452           -0.2638616
 Magnitude           :                                                    0.2638616

 L = 2.  Multiply by 1.3450342976 to convert [e a0^2] to [Debye ang]
 Quadrupole XX       :        -11.2308956            0.0000000          -11.2308956
 Quadrupole XY       :          0.0000000            0.0000000            0.0000000
 Quadrupole XZ       :          0.0000000            0.0000000            0.0000000
 Quadrupole YY       :         -9.8635317            0.0000000           -9.8635317
 Quadrupole YZ       :          0.0000000            0.0000000            0.0000000
 Quadrupole ZZ       :        -44.4658846           30.3945890          -14.0712955
 Traceless XX        :         10.6225417          -10.1315297            0.4910120
 Traceless YY        :         11.9899056          -10.1315297            1.8583759
 Traceless ZZ        :        -22.6124473           20.2630594           -2.3493879

 ------------------------------------------------------------------------------------
  ==> Computing MBIS Charges <==

  Electron Count from Grid (Expected Number): 15.00000 (15.00000)
  Difference: -0.00000

  MBIS Charges: (a.u.)
   Center  Symbol  Z      Pop.       Charge
      1       O    8    8.564276   -0.564276
      2       C    6    6.435723   -0.435723

  MBIS Dipoles: [e a0]
   Center  Symbol  Z        X           Y           Z
      1       O    8    0.000000   -0.000000    0.050804
      2       C    6   -0.000000    0.000000   -0.293604

  MBIS Quadrupoles: [e a0^2]
   Center  Symbol  Z      XX        XY        XZ        YY        YZ        ZZ
      1       O    8   -4.7342   -0.0000    0.0000   -4.5268    0.0000   -4.5668
      2       C    6   -6.4967    0.0000    0.0000   -5.3367    0.0000   -6.1958

  MBIS Octupoles: [e a0^3]
   Center  Symbol  Z      XXX       XXY       XXZ       XYY       XYZ       XZZ       YYY       YYZ       YZZ       ZZZ
      1       O    8   -0.0000   -0.0000    0.0472   -0.0000    0.0000    0.0000   -0.0000    0.0466   -0.0000   -0.0759
      2       C    6   -0.0000   -0.0000   -0.5215   -0.0000    0.0000   -0.0000    0.0000   -0.0561    0.0000   -0.0526

  MBIS Radial Moments:
   Center  Symbol  Z      [a0^2]      [a0^3]      [a0^4]
      1       O    8   13.827855   27.735500   66.399779
      2       C    6   18.029167   48.708079   154.818123

  MBIS Valence Widths: [a0]
   Center  Symbol  Z     Width
      1       O    8    0.409733
      2       C    6    0.569068

*** tstop() called on Mac.lan at Sun Aug 10 17:43:37 2025
Module time:
	user time   =       3.46 seconds =       0.06 minutes
	system time =       1.84 seconds =       0.03 minutes
	total time  =          0 seconds =       0.00 minutes
Total time:
	user time   =      21.26 seconds =       0.35 minutes
	system time =       4.17 seconds =       0.07 minutes
	total time  =          2 seconds =       0.03 minutes

    Psi4 stopped on: Sunday, 10 August 2025 05:43PM
    Psi4 wall time for execution: 0:00:02.45

*** Psi4 exiting successfully. Buy a developer a beer!
