                               Psi4 1.9.1 release

  ==> Input File <==

--------------------------------------------------------------------------
molecule {
-1 3
C           0.000000           0.000000           0.000000
H           0.000000           0.000000           0.754225
}

set {
basis              cc-pvtz
reference          uks
maxiter            500
DAMPING_PERCENTAGE 1
E_CONVERGENCE      1.0E-8
D_CONVERGENCE      1.0E-8
DIIS_MAX_VECS      400
MBIS_MAXITER       8000
guess              read
}

E, wfn = energy('b3lyp', restart_file='last_wfn', return_wfn=True)
properties('b3lyp','MBIS_CHARGES', wfn=wfn)
wfn.to_file('last_wfn')
--------------------------------------------------------------------------

    Molecular point group: c2v
  Charge       = -1
  Multiplicity = 3
  Basis Set: CC-PVTZ
    Blend: CC-PVTZ
  Basis Set: (CC-PVTZ AUX)
    Blend: CC-PVTZ-JKFIT
  @DF-UKS Final Energy:   -38.36833832214847
    Total Energy =                        -38.3683383221484675
 Dipole X            :          0.0000000            0.0000000            0.0000000
 Dipole Y            :          0.0000000            0.0000000            0.0000000
 Dipole Z            :          0.2559456            0.6522808            0.9082264
 Magnitude           :                                                    0.9082264
    Molecular point group: c2v

    Geometry (in Angstrom), charge = -1, multiplicity = 3:

       Center              X                  Y                   Z               Mass
    ------------   -----------------  -----------------  -----------------  -----------------
         C            0.000000000000     0.000000000000    -0.058436120800    12.000000000000
         H            0.000000000000     0.000000000000     0.695788879200     1.007825032230

  Charge       = -1
  Multiplicity = 3
  Basis Set: CC-PVTZ
    Blend: CC-PVTZ
  Basis Set: (CC-PVTZ AUX)
    Blend: CC-PVTZ-JKFIT

    Orbital Energies [Eh]
    ---------------------

    Alpha Occupied:

       1A1    -9.823575     2A1    -0.392900     3A1     0.024227
       1B1     0.094432     1B2     0.094432

    Alpha Virtual:

       4A1     0.298523     5A1     0.542622     2B2     0.577356
       2B1     0.577356     6A1     0.669309     7A1     0.925168
       3B2     0.948340     3B1     0.948340     8A1     0.971475
       1A2     0.971475     9A1     1.314397     4B1     1.390834
       4B2     1.390834    10A1     2.203430     5B1     2.281575
       5B2     2.281575    11A1     2.322101    12A1     2.577691
       2A2     2.948210    13A1     2.948210     6B1     3.005572
       6B2     3.005572     7B1     3.094244     7B2     3.094244
       3A2     3.251083    14A1     3.251083     8B1     3.374843
       8B2     3.374843    15A1     3.407248    16A1     4.203747
       4A2     4.366397    17A1     4.366397     9B1     4.410415
       9B2     4.410415    18A1     6.019283    10B2     6.026022
      10B1     6.026022    19A1     6.589649    20A1    13.907526

    Beta Occupied:

       1A1    -9.800996     2A1    -0.328254     3A1     0.067289

    Beta Virtual:

       1B1     0.249360     1B2     0.249360     4A1     0.303679
       5A1     0.559278     2B2     0.646554     2B1     0.646554
       6A1     0.705995     7A1     0.948595     3B2     0.986173
       3B1     0.986173     1A2     1.048062     8A1     1.048062
       9A1     1.333848     4B1     1.411781     4B2     1.411781
      10A1     2.241845    11A1     2.339304     5B1     2.358332
       5B2     2.358332    12A1     2.631530    13A1     3.004666
       2A2     3.004666     6B1     3.100469     6B2     3.100469
       7B1     3.140119     7B2     3.140119    14A1     3.357818
       3A2     3.357818     8B1     3.410786     8B2     3.410786
      15A1     3.438621    16A1     4.224897     4A2     4.404190
      17A1     4.404191     9B1     4.429612     9B2     4.429612
      18A1     6.042116    10B2     6.058648    10B1     6.058648
      19A1     6.600607    20A1    13.933567

    Final Occupation by Irrep:
             A1    A2    B1    B2
    DOCC [     3,    0,    0,    0 ]
    SOCC [     0,    0,    1,    1 ]
    NA   [     3,    0,    1,    1 ]
    NB   [     3,    0,    0,    0 ]

  @DF-UKS Final Energy:   -38.36833832173873

   => Energetics <=

    Nuclear Repulsion Energy =              4.2097030249859131
    One-Electron Energy =                 -61.5558153142115216
    Two-Electron Energy =                  23.8842832118714483
    DFT Exchange-Correlation Energy =      -4.9065092443845719
    Empirical Dispersion Energy =           0.0000000000000000
    VV10 Nonlocal Energy =                  0.0000000000000000
    Total Energy =                        -38.3683383217387330

  UHF NO Occupations:
  HONO-2 :    3 A1 1.9977340
  HONO-1 :    1 B2 1.0000000
  HONO-0 :    1 B1 1.0000000
  LUNO+0 :    4 A1 0.0022660
  LUNO+1 :    5 A1 0.0001964
  LUNO+2 :    6 A1 0.0000011
  LUNO+3 :    7 A1 0.0000000

Computation Completed

Properties will be evaluated at   0.000000,   0.000000,   0.000000 [a0]

Properties computed using the B3LYP density matrix

 Multipole Moments:

 ------------------------------------------------------------------------------------
     Multipole            Electronic (a.u.)      Nuclear  (a.u.)        Total (a.u.)
 ------------------------------------------------------------------------------------

 L = 1.  Multiply by 2.5417464519 to convert [e a0] to [Debye]
 Dipole X            :          0.0000000            0.0000000            0.0000000
 Dipole Y            :          0.0000000            0.0000000            0.0000000
 Dipole Z            :          0.2559456            0.6522808            0.9082264
 Magnitude           :                                                    0.9082264

 L = 2.  Multiply by 1.3450342976 to convert [e a0^2] to [Debye ang]
 Quadrupole XX       :         -7.7446389            0.0000000           -7.7446389
 Quadrupole XY       :          0.0000000            0.0000000            0.0000000
 Quadrupole XZ       :          0.0000000            0.0000000            0.0000000
 Quadrupole YY       :         -7.7446389            0.0000000           -7.7446389
 Quadrupole YZ       :          0.0000000            0.0000000            0.0000000
 Quadrupole ZZ       :         -9.5919108            1.8019980           -7.7899127
 Traceless XX        :          0.6157573           -0.6006660            0.0150913
 Traceless YY        :          0.6157573           -0.6006660            0.0150913
 Traceless ZZ        :         -1.2315146            1.2013320           -0.0301826

 ------------------------------------------------------------------------------------
  ==> Computing MBIS Charges <==

  Electron Count from Grid (Expected Number):  8.00000 ( 8.00000)
  Difference:  0.00000

  MBIS Charges: (a.u.)
   Center  Symbol  Z      Pop.       Charge
      1       C    6    7.201239   -1.201239
      2       H    1    0.798762    0.201238

  MBIS Dipoles: [e a0]
   Center  Symbol  Z        X           Y           Z
      1       C    6   -0.000000   -0.000000    0.484800
      2       H    1   -0.000000    0.000000    0.026177

  MBIS Quadrupoles: [e a0^2]
   Center  Symbol  Z      XX        XY        XZ        YY        YZ        ZZ
      1       C    6   -7.4775    0.0000    0.0000   -7.4775    0.0000   -7.8180
      2       H    1   -0.2671    0.0000   -0.0000   -0.2671   -0.0000   -0.2670

  MBIS Octupoles: [e a0^3]
   Center  Symbol  Z      XXX       XXY       XXZ       XYY       XYZ       XZZ       YYY       YYZ       YZZ       ZZZ
      1       C    6   -0.0000    0.0000    1.2040   -0.0000   -0.0000   -0.0000    0.0000    1.2040    0.0000    2.9536
      2       H    1   -0.0000    0.0000    0.0060    0.0000    0.0000    0.0000    0.0000    0.0060    0.0000    0.0117

  MBIS Radial Moments:
   Center  Symbol  Z      [a0^2]      [a0^3]      [a0^4]
      1       C    6   22.772959   64.251810   211.393074
      2       H    1    0.801258    1.138761    1.947016

  MBIS Valence Widths: [a0]
   Center  Symbol  Z     Width
      1       C    6    0.593202
      2       H    1    0.292416

*** tstop() called on Mac.lan at Sun Aug 10 17:35:11 2025
Module time:
	user time   =       3.38 seconds =       0.06 minutes
	system time =       2.24 seconds =       0.04 minutes
	total time  =          0 seconds =       0.00 minutes
Total time:
	user time   =      46.28 seconds =       0.77 minutes
	system time =       5.19 seconds =       0.09 minutes
	total time  =          5 seconds =       0.08 minutes

    Psi4 stopped on: Sunday, 10 August 2025 05:35PM
    Psi4 wall time for execution: 0:00:05.28

*** Psi4 exiting successfully. Buy a developer a beer!
