                               Psi4 1.9.1 release

  ==> Input File <==

--------------------------------------------------------------------------
molecule {
-1 1
O           0.000000           0.000000           0.000000
H           0.000000           0.000000           0.499403
}

set {
basis              cc-pvtz
reference          uks
maxiter            500
DAMPING_PERCENTAGE 1
E_CONVERGENCE      1.0E-8
D_CONVERGENCE      1.0E-8
DIIS_MAX_VECS      400
MBIS_MAXITER       8000
guess              read
}

E, wfn = energy('b3lyp', restart_file='last_wfn', return_wfn=True)
properties('b3lyp','MBIS_CHARGES', wfn=wfn)
wfn.to_file('last_wfn')
--------------------------------------------------------------------------

    Molecular point group: c2v
  Charge       = -1
  Multiplicity = 1
  Basis Set: CC-PVTZ
    Blend: CC-PVTZ
  Basis Set: (CC-PVTZ AUX)
    Blend: CC-PVTZ-JKFIT
  @DF-UKS Final Energy:   -75.02457622241488
    Total Energy =                        -75.0245762224148791
 Dipole X            :          0.0000000            0.0000000            0.0000000
 Dipole Y            :          0.0000000            0.0000000            0.0000000
 Dipole Z            :          0.1996341            0.4402821            0.6399162
 Magnitude           :                                                    0.6399162
    Molecular point group: c2v

    Geometry (in Angstrom), charge = -1, multiplicity = 1:

       Center              X                  Y                   Z               Mass
    ------------   -----------------  -----------------  -----------------  -----------------
         O            0.000000000000     0.000000000000    -0.029601749770    15.994914619570
         H            0.000000000000     0.000000000000     0.469801250230     1.007825032230

  Charge       = -1
  Multiplicity = 1
  Basis Set: CC-PVTZ
    Blend: CC-PVTZ
  Basis Set: (CC-PVTZ AUX)
    Blend: CC-PVTZ-JKFIT

    Orbital Energies [Eh]
    ---------------------

    Alpha Occupied:

       1A1   -18.609632     2A1    -0.710196     3A1    -0.049031
       1B1     0.112029     1B2     0.112029

    Alpha Virtual:

       4A1     0.336642     5A1     0.784545     2B1     0.876969
       2B2     0.876969     6A1     1.090291     7A1     1.164303
       3B1     1.209114     3B2     1.209114     8A1     1.887748
       1A2     1.887748     9A1     2.204012     4B2     2.308772
       4B1     2.308772    10A1     2.758200    11A1     3.511571
       5B1     3.669070     5B2     3.669070    12A1     3.905478
       2A2     3.905478     6B2     4.116114     6B1     4.116114
      13A1     4.374165    14A1     5.328780     7B2     5.529138
       7B1     5.529138     8B1     5.588833     8B2     5.588833
       3A2     6.446885    15A1     6.446885     9B2     6.611689
       9B1     6.611689    16A1     6.693805    17A1     6.947956
       4A2     6.947956    18A1     8.835656    10B1     9.433456
      10B2     9.433456    19A1     9.887751    20A1    18.026829

    Beta Occupied:

       1A1   -18.609632     2A1    -0.710196     3A1    -0.049031
       1B1     0.112029     1B2     0.112029

    Beta Virtual:

       4A1     0.336642     5A1     0.784545     2B1     0.876969
       2B2     0.876969     6A1     1.090291     7A1     1.164303
       3B1     1.209114     3B2     1.209114     8A1     1.887748
       1A2     1.887748     9A1     2.204012     4B2     2.308772
       4B1     2.308772    10A1     2.758200    11A1     3.511571
       5B1     3.669070     5B2     3.669070    12A1     3.905478
       2A2     3.905478     6B2     4.116114     6B1     4.116114
      13A1     4.374165    14A1     5.328780     7B2     5.529138
       7B1     5.529138     8B1     5.588833     8B2     5.588833
       3A2     6.446885    15A1     6.446885     9B2     6.611689
       9B1     6.611689    16A1     6.693805    17A1     6.947956
       4A2     6.947956    18A1     8.835656    10B1     9.433456
      10B2     9.433456    19A1     9.887751    20A1    18.026829

    Final Occupation by Irrep:
             A1    A2    B1    B2
    DOCC [     3,    0,    1,    1 ]
    SOCC [     0,    0,    0,    0 ]
    NA   [     3,    0,    1,    1 ]
    NB   [     3,    0,    1,    1 ]

  @DF-UKS Final Energy:   -75.02457622222488

   => Energetics <=

    Nuclear Repulsion Energy =              8.4769568572075062
    One-Electron Energy =                -123.1346647920224200
    Two-Electron Energy =                  47.4090920965253275
    DFT Exchange-Correlation Energy =      -7.7759603839352955
    Empirical Dispersion Energy =           0.0000000000000000
    VV10 Nonlocal Energy =                  0.0000000000000000
    Total Energy =                        -75.0245762222248800

  UHF NO Occupations:
  HONO-2 :    2 A1 2.0000000
  HONO-1 :    1 B2 2.0000000
  HONO-0 :    3 A1 2.0000000
  LUNO+0 :    4 A1 0.0000000
  LUNO+1 :    5 A1 0.0000000
  LUNO+2 :    6 A1 0.0000000
  LUNO+3 :    7 A1 0.0000000

Computation Completed

Properties will be evaluated at   0.000000,   0.000000,   0.000000 [a0]

Properties computed using the B3LYP density matrix

 Multipole Moments:

 ------------------------------------------------------------------------------------
     Multipole            Electronic (a.u.)      Nuclear  (a.u.)        Total (a.u.)
 ------------------------------------------------------------------------------------

 L = 1.  Multiply by 2.5417464519 to convert [e a0] to [Debye]
 Dipole X            :          0.0000000            0.0000000            0.0000000
 Dipole Y            :          0.0000000            0.0000000            0.0000000
 Dipole Z            :          0.1996341            0.4402821            0.6399162
 Magnitude           :                                                    0.6399162

 L = 2.  Multiply by 1.3450342976 to convert [e a0^2] to [Debye ang]
 Quadrupole XX       :         -5.9134510            0.0000000           -5.9134510
 Quadrupole XY       :          0.0000000            0.0000000            0.0000000
 Quadrupole XZ       :          0.0000000            0.0000000            0.0000000
 Quadrupole YY       :         -5.9134510            0.0000000           -5.9134510
 Quadrupole YZ       :          0.0000000            0.0000000            0.0000000
 Quadrupole ZZ       :         -5.7284904            0.8132148           -4.9152757
 Traceless XX        :         -0.0616535           -0.2710716           -0.3327251
 Traceless YY        :         -0.0616535           -0.2710716           -0.3327251
 Traceless ZZ        :          0.1233071            0.5421432            0.6654502

 ------------------------------------------------------------------------------------
  ==> Computing MBIS Charges <==

  Electron Count from Grid (Expected Number): 10.00000 (10.00000)
  Difference: -0.00000

  MBIS Charges: (a.u.)
   Center  Symbol  Z      Pop.       Charge
      1       O    8    9.496367   -1.496367
      2       H    1    0.503633    0.496367

  MBIS Dipoles: [e a0]
   Center  Symbol  Z        X           Y           Z
      1       O    8    0.000000   -0.000000    0.101489
      2       H    1   -0.000000    0.000000    0.014049

  MBIS Quadrupoles: [e a0^2]
   Center  Symbol  Z      XX        XY        XZ        YY        YZ        ZZ
      1       O    8   -5.8290   -0.0000    0.0000   -5.8290   -0.0000   -5.2355
      2       H    1   -0.0844   -0.0000    0.0000   -0.0844   -0.0000   -0.0799

  MBIS Octupoles: [e a0^3]
   Center  Symbol  Z      XXX       XXY       XXZ       XYY       XYZ       XZZ       YYY       YYZ       YZZ       ZZZ
      1       O    8    0.0000   -0.0000    0.3221    0.0000   -0.0000   -0.0000   -0.0000    0.3221   -0.0000    0.7709
      2       H    1   -0.0000    0.0000    0.0027    0.0000    0.0000   -0.0000    0.0000    0.0027    0.0000    0.0064

  MBIS Radial Moments:
   Center  Symbol  Z      [a0^2]      [a0^3]      [a0^4]
      1       O    8   16.893585   35.333114   87.419936
      2       H    1    0.248728    0.248603    0.299251

  MBIS Valence Widths: [a0]
   Center  Symbol  Z     Width
      1       O    8    0.424365
      2       H    1    0.204930

*** tstop() called on Mac.lan at Sun Aug 10 17:37:31 2025
Module time:
	user time   =       3.59 seconds =       0.06 minutes
	system time =       2.74 seconds =       0.05 minutes
	total time  =          0 seconds =       0.00 minutes
Total time:
	user time   =      12.46 seconds =       0.21 minutes
	system time =       5.08 seconds =       0.08 minutes
	total time  =          1 seconds =       0.02 minutes

    Psi4 stopped on: Sunday, 10 August 2025 05:37PM
    Psi4 wall time for execution: 0:00:01.71

*** Psi4 exiting successfully. Buy a developer a beer!
