                               Psi4 1.9.1 release

  ==> Input File <==

--------------------------------------------------------------------------
molecule {
-1 3
C           0.000000           0.000000           0.000000
H           0.000000           0.000000           1.348676
}

set {
basis              cc-pvtz
reference          uks
maxiter            500
DAMPING_PERCENTAGE 1
E_CONVERGENCE      1.0E-8
D_CONVERGENCE      1.0E-8
DIIS_MAX_VECS      400
MBIS_MAXITER       8000
guess              read
}

E, wfn = energy('b3lyp', restart_file='last_wfn', return_wfn=True)
properties('b3lyp','MBIS_CHARGES', wfn=wfn)
wfn.to_file('last_wfn')
--------------------------------------------------------------------------

    Molecular point group: c2v
  Charge       = -1
  Multiplicity = 3
  Basis Set: CC-PVTZ
    Blend: CC-PVTZ
  Basis Set: (CC-PVTZ AUX)
    Blend: CC-PVTZ-JKFIT
  @DF-UKS Final Energy:   -38.51713963313931
    Total Energy =                        -38.5171396331393083
 Dipole X            :          0.0000000            0.0000000            0.0000000
 Dipole Y            :          0.0000000            0.0000000            0.0000000
 Dipole Z            :         -1.1283501            1.1663834            0.0380333
 Magnitude           :                                                    0.0380333
    Molecular point group: c2v

    Geometry (in Angstrom), charge = -1, multiplicity = 3:

       Center              X                  Y                   Z               Mass
    ------------   -----------------  -----------------  -----------------  -----------------
         C            0.000000000000     0.000000000000    -0.104493213108    12.000000000000
         H            0.000000000000     0.000000000000     1.244182786892     1.007825032230

  Charge       = -1
  Multiplicity = 3
  Basis Set: CC-PVTZ
    Blend: CC-PVTZ
  Basis Set: (CC-PVTZ AUX)
    Blend: CC-PVTZ-JKFIT

    Orbital Energies [Eh]
    ---------------------

    Alpha Occupied:

       1A1    -9.905462     2A1    -0.279252     3A1     0.002399
       1B1     0.077216     1B2     0.077216

    Alpha Virtual:

       4A1     0.279345     5A1     0.530493     2B1     0.567106
       2B2     0.567106     6A1     0.602740     7A1     0.717745
       3B1     0.847763     3B2     0.847763     8A1     0.958674
       1A2     0.958674     9A1     1.197327     4B1     1.259216
       4B2     1.259216    10A1     1.502291     5B1     2.259912
       5B2     2.259912    11A1     2.454178    12A1     2.708948
       2A2     2.895774    13A1     2.895774     6B1     2.897593
       6B2     2.897593     7B2     2.982746     7B1     2.982746
      14A1     3.057117     3A2     3.243891    15A1     3.243891
       8B2     3.368106     8B1     3.368106    16A1     3.416692
       4A2     3.688117    17A1     3.688122     9B1     4.017471
       9B2     4.017471    18A1     4.163378    10B1     4.516668
      10B2     4.516668    19A1     4.653240    20A1     6.649954

    Beta Occupied:

       1A1    -9.881302     2A1    -0.201546     3A1     0.030245

    Beta Virtual:

       1B1     0.236289     1B2     0.236289     4A1     0.291304
       5A1     0.541697     6A1     0.620351     2B1     0.638414
       2B2     0.638414     7A1     0.762055     3B1     0.870779
       3B2     0.870779     8A1     1.035139     1A2     1.035140
       9A1     1.220843     4B2     1.284118     4B1     1.284118
      10A1     1.513220     5B1     2.338865     5B2     2.338865
      11A1     2.475524    12A1     2.720159     6B1     2.935168
       6B2     2.935168     2A2     2.947744    13A1     2.947745
       7B1     3.078836     7B2     3.078836    14A1     3.089495
       3A2     3.363348    15A1     3.363348     8B2     3.427107
       8B1     3.427107    16A1     3.452237     4A2     3.700387
      17A1     3.700391     9B1     4.014557     9B2     4.014557
      18A1     4.184155    10B1     4.532163    10B2     4.532163
      19A1     4.657038    20A1     6.676816

    Final Occupation by Irrep:
             A1    A2    B1    B2
    DOCC [     3,    0,    0,    0 ]
    SOCC [     0,    0,    1,    1 ]
    NA   [     3,    0,    1,    1 ]
    NB   [     3,    0,    0,    0 ]

  @DF-UKS Final Energy:   -38.51713963341922

   => Energetics <=

    Nuclear Repulsion Energy =              2.3542075813761056
    One-Electron Energy =                 -58.2597571341336931
    Two-Electron Energy =                  22.1065726899756463
    DFT Exchange-Correlation Energy =      -4.7181627706372780
    Empirical Dispersion Energy =           0.0000000000000000
    VV10 Nonlocal Energy =                  0.0000000000000000
    Total Energy =                        -38.5171396334192195

  UHF NO Occupations:
  HONO-2 :    3 A1 1.9973659
  HONO-1 :    1 B2 1.0000000
  HONO-0 :    1 B1 1.0000000
  LUNO+0 :    4 A1 0.0026341
  LUNO+1 :    5 A1 0.0006695
  LUNO+2 :    6 A1 0.0000011
  LUNO+3 :    7 A1 0.0000000

Computation Completed

Properties will be evaluated at   0.000000,   0.000000,   0.000000 [a0]

Properties computed using the B3LYP density matrix

 Multipole Moments:

 ------------------------------------------------------------------------------------
     Multipole            Electronic (a.u.)      Nuclear  (a.u.)        Total (a.u.)
 ------------------------------------------------------------------------------------

 L = 1.  Multiply by 2.5417464519 to convert [e a0] to [Debye]
 Dipole X            :          0.0000000            0.0000000            0.0000000
 Dipole Y            :          0.0000000            0.0000000            0.0000000
 Dipole Z            :         -1.1283501            1.1663834            0.0380333
 Magnitude           :                                                    0.0380333

 L = 2.  Multiply by 1.3450342976 to convert [e a0^2] to [Debye ang]
 Quadrupole XX       :         -8.1407817            0.0000000           -8.1407817
 Quadrupole XY       :          0.0000000            0.0000000            0.0000000
 Quadrupole XZ       :          0.0000000            0.0000000            0.0000000
 Quadrupole YY       :         -8.1407817            0.0000000           -8.1407817
 Quadrupole YZ       :          0.0000000            0.0000000            0.0000000
 Quadrupole ZZ       :        -15.1700531            5.7619267           -9.4081265
 Traceless XX        :          2.3430905           -1.9206422            0.4224482
 Traceless YY        :          2.3430905           -1.9206422            0.4224482
 Traceless ZZ        :         -4.6861809            3.8412844           -0.8448965

 ------------------------------------------------------------------------------------
  ==> Computing MBIS Charges <==

  Electron Count from Grid (Expected Number):  8.00000 ( 8.00000)
  Difference:  0.00000

  MBIS Charges: (a.u.)
   Center  Symbol  Z      Pop.       Charge
      1       C    6    6.856798   -0.856798
      2       H    1    1.143202   -0.143202

  MBIS Dipoles: [e a0]
   Center  Symbol  Z        X           Y           Z
      1       C    6   -0.000000   -0.000000    0.220272
      2       H    1    0.000000   -0.000000   -0.014734

  MBIS Quadrupoles: [e a0^2]
   Center  Symbol  Z      XX        XY        XZ        YY        YZ        ZZ
      1       C    6   -7.0079    0.0000    0.0000   -7.0079    0.0000   -7.2132
      2       H    1   -1.1329    0.0000   -0.0000   -1.1329   -0.0000   -1.2137

  MBIS Octupoles: [e a0^3]
   Center  Symbol  Z      XXX       XXY       XXZ       XYY       XYZ       XZZ       YYY       YYZ       YZZ       ZZZ
      1       C    6   -0.0000   -0.0000    0.2109   -0.0000   -0.0000   -0.0000   -0.0000    0.2109   -0.0000   -0.6656
      2       H    1   -0.0000    0.0000   -0.1032   -0.0000   -0.0000   -0.0000    0.0000   -0.1032   -0.0000   -0.2325

  MBIS Radial Moments:
   Center  Symbol  Z      [a0^2]      [a0^3]      [a0^4]
      1       C    6   21.228900   60.118751   201.074072
      2       H    1    3.479489    8.819853   26.538560

  MBIS Valence Widths: [a0]
   Center  Symbol  Z     Width
      1       C    6    0.591401
      2       H    1    0.500711

*** tstop() called on Mac.lan at Sun Aug 10 17:36:06 2025
Module time:
	user time   =       2.70 seconds =       0.04 minutes
	system time =       1.78 seconds =       0.03 minutes
	total time  =          0 seconds =       0.00 minutes
Total time:
	user time   =      12.61 seconds =       0.21 minutes
	system time =       4.12 seconds =       0.07 minutes
	total time  =          1 seconds =       0.02 minutes

    Psi4 stopped on: Sunday, 10 August 2025 05:36PM
    Psi4 wall time for execution: 0:00:01.63

*** Psi4 exiting successfully. Buy a developer a beer!
