                               Psi4 1.9.1 release

  ==> Input File <==

--------------------------------------------------------------------------
molecule {
-1 3
C           0.000000           0.000000           0.000000
H           0.000000           0.000000           0.700184
}

set {
basis              cc-pvtz
reference          uks
maxiter            500
DAMPING_PERCENTAGE 1
E_CONVERGENCE      1.0E-8
D_CONVERGENCE      1.0E-8
DIIS_MAX_VECS      400
MBIS_MAXITER       8000
guess              read
}

E, wfn = energy('b3lyp', restart_file='last_wfn', return_wfn=True)
properties('b3lyp','MBIS_CHARGES', wfn=wfn)
wfn.to_file('last_wfn')
--------------------------------------------------------------------------

    Molecular point group: c2v
  Charge       = -1
  Multiplicity = 3
  Basis Set: CC-PVTZ
    Blend: CC-PVTZ
  Basis Set: (CC-PVTZ AUX)
    Blend: CC-PVTZ-JKFIT
  @DF-UKS Final Energy:   -38.28870367992219
    Total Energy =                        -38.2887036799221931
 Dipole X            :          0.0000000            0.0000000            0.0000000
 Dipole Y            :          0.0000000            0.0000000            0.0000000
 Dipole Z            :          0.3379654            0.6055442            0.9435096
 Magnitude           :                                                    0.9435096
    Molecular point group: c2v

    Geometry (in Angstrom), charge = -1, multiplicity = 3:

       Center              X                  Y                   Z               Mass
    ------------   -----------------  -----------------  -----------------  -----------------
         C            0.000000000000     0.000000000000    -0.054249112409    12.000000000000
         H            0.000000000000     0.000000000000     0.645934887591     1.007825032230

  Charge       = -1
  Multiplicity = 3
  Basis Set: CC-PVTZ
    Blend: CC-PVTZ
  Basis Set: (CC-PVTZ AUX)
    Blend: CC-PVTZ-JKFIT

    Orbital Energies [Eh]
    ---------------------

    Alpha Occupied:

       1A1    -9.820917     2A1    -0.407540     3A1     0.024219
       1B1     0.094098     1B2     0.094098

    Alpha Virtual:

       4A1     0.297922     5A1     0.540432     2B1     0.576176
       2B2     0.576176     6A1     0.683076     7A1     0.955527
       3B2     0.957422     3B1     0.957422     8A1     0.971829
       1A2     0.971829     9A1     1.322609     4B2     1.400956
       4B1     1.400956    10A1     2.193742     5B2     2.264808
       5B1     2.264808    11A1     2.393435    12A1     2.638647
       2A2     2.965562    13A1     2.965562     6B2     3.006283
       6B1     3.006283     7B1     3.104535     7B2     3.104535
       3A2     3.240189    14A1     3.240189     8B2     3.391387
       8B1     3.391387    15A1     3.427761    16A1     4.286510
      17A1     4.459142     4A2     4.459142     9B1     4.485089
       9B2     4.485089    18A1     6.084445    10B2     6.189725
      10B1     6.189725    19A1     7.060719    20A1    14.972815

    Beta Occupied:

       1A1    -9.798201     2A1    -0.342857     3A1     0.068245

    Beta Virtual:

       1B2     0.249422     1B1     0.249422     4A1     0.303451
       5A1     0.556748     2B1     0.645267     2B2     0.645267
       6A1     0.720273     7A1     0.979216     3B2     0.995894
       3B1     0.995894     1A2     1.048389     8A1     1.048389
       9A1     1.340785     4B2     1.421273     4B1     1.421273
      10A1     2.232840     5B2     2.341070     5B1     2.341070
      11A1     2.410207    12A1     2.697528    13A1     3.023393
       2A2     3.023393     6B2     3.101166     6B1     3.101166
       7B1     3.151081     7B2     3.151081    14A1     3.345638
       3A2     3.345638     8B2     3.427829     8B1     3.427829
      15A1     3.458722    16A1     4.307916    17A1     4.499714
       4A2     4.499714     9B1     4.507378     9B2     4.507378
      18A1     6.109283    10B2     6.222977    10B1     6.222977
      19A1     7.070902    20A1    14.999384

    Final Occupation by Irrep:
             A1    A2    B1    B2
    DOCC [     3,    0,    0,    0 ]
    SOCC [     0,    0,    1,    1 ]
    NA   [     3,    0,    1,    1 ]
    NB   [     3,    0,    0,    0 ]

  @DF-UKS Final Energy:   -38.28870367994766

   => Energetics <=

    Nuclear Repulsion Energy =              4.5346127075454454
    One-Electron Energy =                 -62.0032588881943596
    Two-Electron Energy =                  24.1140706944121241
    DFT Exchange-Correlation Energy =      -4.9341281937108628
    Empirical Dispersion Energy =           0.0000000000000000
    VV10 Nonlocal Energy =                  0.0000000000000000
    Total Energy =                        -38.2887036799476590

  UHF NO Occupations:
  HONO-2 :    3 A1 1.9976809
  HONO-1 :    1 B2 1.0000000
  HONO-0 :    1 B1 1.0000000
  LUNO+0 :    4 A1 0.0023191
  LUNO+1 :    5 A1 0.0001861
  LUNO+2 :    6 A1 0.0000011
  LUNO+3 :    2 B2 0.0000000

Computation Completed

Properties will be evaluated at   0.000000,   0.000000,   0.000000 [a0]

Properties computed using the B3LYP density matrix

 Multipole Moments:

 ------------------------------------------------------------------------------------
     Multipole            Electronic (a.u.)      Nuclear  (a.u.)        Total (a.u.)
 ------------------------------------------------------------------------------------

 L = 1.  Multiply by 2.5417464519 to convert [e a0] to [Debye]
 Dipole X            :          0.0000000            0.0000000            0.0000000
 Dipole Y            :          0.0000000            0.0000000            0.0000000
 Dipole Z            :          0.3379654            0.6055442            0.9435096
 Magnitude           :                                                    0.9435096

 L = 2.  Multiply by 1.3450342976 to convert [e a0^2] to [Debye ang]
 Quadrupole XX       :         -7.7095490            0.0000000           -7.7095490
 Quadrupole XY       :          0.0000000            0.0000000            0.0000000
 Quadrupole XZ       :          0.0000000            0.0000000            0.0000000
 Quadrupole YY       :         -7.7095490            0.0000000           -7.7095490
 Quadrupole YZ       :          0.0000000            0.0000000            0.0000000
 Quadrupole ZZ       :         -9.2813351            1.5530192           -7.7283159
 Traceless XX        :          0.5239287           -0.5176731            0.0062556
 Traceless YY        :          0.5239287           -0.5176731            0.0062556
 Traceless ZZ        :         -1.0478574            1.0353462           -0.0125112

 ------------------------------------------------------------------------------------
  ==> Computing MBIS Charges <==

  Electron Count from Grid (Expected Number):  8.00000 ( 8.00000)
  Difference:  0.00000

  MBIS Charges: (a.u.)
   Center  Symbol  Z      Pop.       Charge
      1       C    6    7.197901   -1.197901
      2       H    1    0.802099    0.197901

  MBIS Dipoles: [e a0]
   Center  Symbol  Z        X           Y           Z
      1       C    6   -0.000000   -0.000000    0.553829
      2       H    1   -0.000000    0.000000    0.025310

  MBIS Quadrupoles: [e a0^2]
   Center  Symbol  Z      XX        XY        XZ        YY        YZ        ZZ
      1       C    6   -7.4649    0.0000    0.0000   -7.4649    0.0000   -7.7176
      2       H    1   -0.2446   -0.0000    0.0000   -0.2446    0.0000   -0.2412

  MBIS Octupoles: [e a0^3]
   Center  Symbol  Z      XXX       XXY       XXZ       XYY       XYZ       XZZ       YYY       YYZ       YZZ       ZZZ
      1       C    6   -0.0000    0.0000    1.3575   -0.0000   -0.0000   -0.0000    0.0000    1.3575   -0.0000    3.6419
      2       H    1    0.0000    0.0000    0.0064   -0.0000    0.0000   -0.0000    0.0000    0.0064    0.0000    0.0138

  MBIS Radial Moments:
   Center  Symbol  Z      [a0^2]      [a0^3]      [a0^4]
      1       C    6   22.647448   63.828805   209.885500
      2       H    1    0.730479    0.986707    1.603454

  MBIS Valence Widths: [a0]
   Center  Symbol  Z     Width
      1       C    6    0.591578
      2       H    1    0.278971

*** tstop() called on Mac.lan at Sun Aug 10 17:35:16 2025
Module time:
	user time   =       4.30 seconds =       0.07 minutes
	system time =       2.19 seconds =       0.04 minutes
	total time  =          1 seconds =       0.02 minutes
Total time:
	user time   =      13.79 seconds =       0.23 minutes
	system time =       4.36 seconds =       0.07 minutes
	total time  =          2 seconds =       0.03 minutes

    Psi4 stopped on: Sunday, 10 August 2025 05:35PM
    Psi4 wall time for execution: 0:00:01.77

*** Psi4 exiting successfully. Buy a developer a beer!
