                               Psi4 1.9.1 release

  ==> Input File <==

--------------------------------------------------------------------------
molecule {
-1 2
C           0.000000           0.000000           0.000000
C           0.000000           0.000000           1.236001
}

set {
basis              cc-pvtz
reference          uks
maxiter            500
DAMPING_PERCENTAGE 1
E_CONVERGENCE      1.0E-8
D_CONVERGENCE      1.0E-8
DIIS_MAX_VECS      400
MBIS_MAXITER       8000
guess              read
}

E, wfn = energy('b3lyp', restart_file='last_wfn', return_wfn=True)
properties('b3lyp','MBIS_CHARGES', wfn=wfn)
wfn.to_file('last_wfn')
--------------------------------------------------------------------------

    Molecular point group: d2h
  Charge       = -1
  Multiplicity = 2
  Basis Set: CC-PVTZ
    Blend: CC-PVTZ
  Basis Set: (CC-PVTZ AUX)
    Blend: CC-PVTZ-JKFIT
  @DF-UKS Final Energy:   -76.05825812931408
    Total Energy =                        -76.0582581293140834
 Dipole X            :          0.0000000            0.0000000            0.0000000
 Dipole Y            :          0.0000000            0.0000000            0.0000000
 Dipole Z            :          0.0000000            0.0000000            0.0000000
 Magnitude           :                                                    0.0000000
    Molecular point group: d2h

    Geometry (in Angstrom), charge = -1, multiplicity = 2:

       Center              X                  Y                   Z               Mass
    ------------   -----------------  -----------------  -----------------  -----------------
         C            0.000000000000     0.000000000000    -0.618000500000    12.000000000000
         C            0.000000000000     0.000000000000     0.618000500000    12.000000000000

  Charge       = -1
  Multiplicity = 2
  Basis Set: CC-PVTZ
    Blend: CC-PVTZ
  Basis Set: (CC-PVTZ AUX)
    Blend: CC-PVTZ-JKFIT

    Orbital Energies [Eh]
    ---------------------

    Alpha Occupied:

       1Ag    -9.910698     1B1u   -9.908710     2Ag    -0.473626
       2B1u   -0.117153     3Ag    -0.036509     1B2u   -0.016001
       1B3u   -0.016001

    Alpha Virtual:

       1B2g    0.296569     1B3g    0.296569     3B1u    0.394752
       4Ag     0.500706     2B2u    0.527271     2B3u    0.527271
       5Ag     0.621489     2B2g    0.638570     2B3g    0.638570
       4B1u    0.797006     6Ag     0.863284     1B1g    0.863284
       5B1u    0.938371     3B3u    1.057147     3B2u    1.057147
       6B1u    1.158676     1Au     1.158676     3B2g    1.410110
       3B3g    1.410110     7Ag     1.415929     7B1u    1.706640
       4B2u    2.236973     4B3u    2.236973     8Ag     2.374435
       4B2g    2.519996     4B3g    2.519996     8B1u    2.633856
       2B1g    2.745462     9Ag     2.745462     5B3u    2.812444
       5B2u    2.812444     6B2u    2.815394     6B3u    2.815394
      10Ag     3.042151     5B3g    3.203206     5B2g    3.203206
       3B1g    3.262405    11Ag     3.262405     6B2g    3.287905
       6B3g    3.287905     2Au     3.346182     9B1u    3.346182
      10B1u    3.606842     7B3u    3.782940     7B2u    3.782940
      11B1u    3.842783     3Au     3.842783    12Ag     3.905999
      12B1u    4.335921     7B3g    4.952539     7B2g    4.952539
      13Ag     5.173708    13B1u   13.035762

    Beta Occupied:

       1Ag    -9.902066     1B1u   -9.900344     2Ag    -0.442248
       2B1u   -0.054843     1B2u   -0.007631     1B3u   -0.007631

    Beta Virtual:

       3Ag     0.095186     1B2g    0.309820     1B3g    0.309820
       3B1u    0.405493     4Ag     0.523992     2B2u    0.531614
       2B3u    0.531614     5Ag     0.642490     2B2g    0.645670
       2B3g    0.645670     4B1u    0.826172     1B1g    0.865122
       6Ag     0.865122     5B1u    0.961468     3B3u    1.081074
       3B2u    1.081074     6B1u    1.165050     1Au     1.165050
       3B2g    1.429058     3B3g    1.429058     7Ag     1.449372
       7B1u    1.741201     4B2u    2.243698     4B3u    2.243698
       8Ag     2.403470     4B2g    2.525387     4B3g    2.525387
       8B1u    2.670343     2B1g    2.758262     9Ag     2.758263
       5B2u    2.817220     5B3u    2.817220     6B3u    2.846141
       6B2u    2.846141    10Ag     3.102996     5B3g    3.205903
       5B2g    3.205903     3B1g    3.273983    11Ag     3.273983
       6B2g    3.334007     6B3g    3.334007     2Au     3.356384
       9B1u    3.356384    10B1u    3.645188     7B3u    3.820746
       7B2u    3.820746    11B1u    3.858217     3Au     3.858217
      12Ag     3.934866    12B1u    4.383871     7B3g    4.979702
       7B2g    4.979702    13Ag     5.199283    13B1u   13.051616

    Final Occupation by Irrep:
             Ag   B1g   B2g   B3g    Au   B1u   B2u   B3u
    DOCC [     2,    0,    0,    0,    0,    2,    1,    1 ]
    SOCC [     1,    0,    0,    0,    0,    0,    0,    0 ]
    NA   [     3,    0,    0,    0,    0,    2,    1,    1 ]
    NB   [     2,    0,    0,    0,    0,    2,    1,    1 ]

  @DF-UKS Final Energy:   -76.05825812847914

   => Energetics <=

    Nuclear Repulsion Energy =             15.4129159961197466
    One-Electron Energy =                -135.7949711498584691
    Two-Electron Energy =                  53.1394235595450652
    DFT Exchange-Correlation Energy =      -8.8156265342854923
    Empirical Dispersion Energy =           0.0000000000000000
    VV10 Nonlocal Energy =                  0.0000000000000000
    Total Energy =                        -76.0582581284791388

  UHF NO Occupations:
  HONO-2 :    2 Ag 1.9997235
  HONO-1 :    2B1u 1.9985333
  HONO-0 :    3 Ag 1.0000000
  LUNO+0 :    3B1u 0.0014667
  LUNO+1 :    4 Ag 0.0002765
  LUNO+2 :    2B2u 0.0000986
  LUNO+3 :    2B3u 0.0000986

Computation Completed

Properties will be evaluated at   0.000000,   0.000000,   0.000000 [a0]

Properties computed using the B3LYP density matrix

 Multipole Moments:

 ------------------------------------------------------------------------------------
     Multipole            Electronic (a.u.)      Nuclear  (a.u.)        Total (a.u.)
 ------------------------------------------------------------------------------------

 L = 1.  Multiply by 2.5417464519 to convert [e a0] to [Debye]
 Dipole X            :          0.0000000            0.0000000            0.0000000
 Dipole Y            :          0.0000000            0.0000000            0.0000000
 Dipole Z            :          0.0000000            0.0000000            0.0000000
 Magnitude           :                                                    0.0000000

 L = 2.  Multiply by 1.3450342976 to convert [e a0^2] to [Debye ang]
 Quadrupole XX       :        -11.4208968            0.0000000          -11.4208968
 Quadrupole XY       :          0.0000000            0.0000000            0.0000000
 Quadrupole XZ       :          0.0000000            0.0000000            0.0000000
 Quadrupole YY       :        -11.4208968            0.0000000          -11.4208968
 Quadrupole YZ       :          0.0000000            0.0000000            0.0000000
 Quadrupole ZZ       :        -29.7462953           16.3665308          -13.3797644
 Traceless XX        :          6.1084661           -5.4555103            0.6529559
 Traceless YY        :          6.1084661           -5.4555103            0.6529559
 Traceless ZZ        :        -12.2169323           10.9110206           -1.3059117

 ------------------------------------------------------------------------------------
  ==> Computing MBIS Charges <==

  Electron Count from Grid (Expected Number): 13.00000 (13.00000)
  Difference: -0.00000

  MBIS Charges: (a.u.)
   Center  Symbol  Z      Pop.       Charge
      1       C    6    6.500000   -0.500000
      2       C    6    6.500000   -0.500000

  MBIS Dipoles: [e a0]
   Center  Symbol  Z        X           Y           Z
      1       C    6   -0.000000    0.000000   -0.050811
      2       C    6   -0.000000    0.000000    0.050811

  MBIS Quadrupoles: [e a0^2]
   Center  Symbol  Z      XX        XY        XZ        YY        YZ        ZZ
      1       C    6   -5.7104    0.0000    0.0000   -5.7104   -0.0000   -6.1266
      2       C    6   -5.7104    0.0000   -0.0000   -5.7104    0.0000   -6.1266

  MBIS Octupoles: [e a0^3]
   Center  Symbol  Z      XXX       XXY       XXZ       XYY       XYZ       XZZ       YYY       YYZ       YZZ       ZZZ
      1       C    6   -0.0000    0.0000   -0.0743   -0.0000    0.0000   -0.0000    0.0000   -0.0743    0.0000    0.1198
      2       C    6   -0.0000    0.0000    0.0743   -0.0000   -0.0000   -0.0000    0.0000    0.0743    0.0000   -0.1198

  MBIS Radial Moments:
   Center  Symbol  Z      [a0^2]      [a0^3]      [a0^4]
      1       C    6   17.547519   46.830036   148.284750
      2       C    6   17.547519   46.830036   148.284750

  MBIS Valence Widths: [a0]
   Center  Symbol  Z     Width
      1       C    6    0.555210
      2       C    6    0.555210

*** tstop() called on Mac.lan at Sun Aug 10 17:30:44 2025
Module time:
	user time   =       3.49 seconds =       0.06 minutes
	system time =       2.03 seconds =       0.03 minutes
	total time  =          0 seconds =       0.00 minutes
Total time:
	user time   =      16.32 seconds =       0.27 minutes
	system time =       4.04 seconds =       0.07 minutes
	total time  =          2 seconds =       0.03 minutes

    Psi4 stopped on: Sunday, 10 August 2025 05:30PM
    Psi4 wall time for execution: 0:00:01.98

*** Psi4 exiting successfully. Buy a developer a beer!
