                               Psi4 1.9.1 release

  ==> Input File <==

--------------------------------------------------------------------------
molecule {
-1 1
O           0.000000           0.000000           0.000000
H           0.000000           0.000000           0.408242
}

set {
basis              cc-pvtz
reference          uks
maxiter            500
DAMPING_PERCENTAGE 1
E_CONVERGENCE      1.0E-8
D_CONVERGENCE      1.0E-8
DIIS_MAX_VECS      400
MBIS_MAXITER       8000
guess              read
}

E, wfn = energy('b3lyp', restart_file='last_wfn', return_wfn=True)
properties('b3lyp','MBIS_CHARGES', wfn=wfn)
wfn.to_file('last_wfn')
--------------------------------------------------------------------------

    Molecular point group: c2v
  Charge       = -1
  Multiplicity = 1
  Basis Set: CC-PVTZ
    Blend: CC-PVTZ
  Basis Set: (CC-PVTZ AUX)
    Blend: CC-PVTZ-JKFIT
  @DF-UKS Final Energy:   -74.21909304032675
    Total Energy =                        -74.2190930403267544
 Dipole X            :          0.0000000            0.0000000            0.0000000
 Dipole Y            :          0.0000000            0.0000000            0.0000000
 Dipole Z            :          0.2667838            0.3599130            0.6266968
 Magnitude           :                                                    0.6266968
    Molecular point group: c2v

    Geometry (in Angstrom), charge = -1, multiplicity = 1:

       Center              X                  Y                   Z               Mass
    ------------   -----------------  -----------------  -----------------  -----------------
         O            0.000000000000     0.000000000000    -0.024198247767    15.994914619570
         H            0.000000000000     0.000000000000     0.384043752233     1.007825032230

  Charge       = -1
  Multiplicity = 1
  Basis Set: CC-PVTZ
    Blend: CC-PVTZ
  Basis Set: (CC-PVTZ AUX)
    Blend: CC-PVTZ-JKFIT

    Orbital Energies [Eh]
    ---------------------

    Alpha Occupied:

       1A1   -18.647017     2A1    -0.748777     3A1    -0.061420
       1B2     0.105819     1B1     0.105819

    Alpha Virtual:

       4A1     0.338469     5A1     0.759803     2B2     0.842617
       2B1     0.842617     6A1     1.105548     7A1     1.206222
       3B1     1.266008     3B2     1.266008     1A2     1.871846
       8A1     1.871846     9A1     2.216737     4B2     2.339039
       4B1     2.339039    10A1     2.921063     5B1     3.636023
       5B2     3.636023    11A1     3.648914     2A2     3.950169
      12A1     3.950169     6B2     4.102642     6B1     4.102642
      13A1     4.350177    14A1     5.405189     7B1     5.589983
       7B2     5.589983     8B2     5.962382     8B1     5.962382
      15A1     6.325113     3A2     6.325113    16A1     6.730774
       9B2     6.778149     9B1     6.778149     4A2     7.381117
      17A1     7.381117    18A1     8.794765    10B2     9.665756
      10B1     9.665756    19A1    11.916161    20A1    19.688609

    Beta Occupied:

       1A1   -18.647017     2A1    -0.748777     3A1    -0.061420
       1B2     0.105819     1B1     0.105819

    Beta Virtual:

       4A1     0.338469     5A1     0.759803     2B2     0.842617
       2B1     0.842617     6A1     1.105548     7A1     1.206222
       3B1     1.266008     3B2     1.266008     1A2     1.871846
       8A1     1.871846     9A1     2.216737     4B2     2.339039
       4B1     2.339039    10A1     2.921063     5B1     3.636023
       5B2     3.636023    11A1     3.648914     2A2     3.950169
      12A1     3.950169     6B2     4.102642     6B1     4.102642
      13A1     4.350177    14A1     5.405189     7B1     5.589983
       7B2     5.589983     8B2     5.962382     8B1     5.962382
      15A1     6.325113     3A2     6.325113    16A1     6.730774
       9B2     6.778149     9B1     6.778149     4A2     7.381117
      17A1     7.381117    18A1     8.794765    10B2     9.665756
      10B1     9.665756    19A1    11.916161    20A1    19.688609

    Final Occupation by Irrep:
             A1    A2    B1    B2
    DOCC [     3,    0,    1,    1 ]
    SOCC [     0,    0,    0,    0 ]
    NA   [     3,    0,    1,    1 ]
    NB   [     3,    0,    1,    1 ]

  @DF-UKS Final Energy:   -74.21909303997043

   => Energetics <=

    Nuclear Repulsion Energy =             10.3698729806340371
    One-Electron Energy =                -125.0382085084934261
    Two-Electron Energy =                  48.3244075943605154
    DFT Exchange-Correlation Energy =      -7.8751651064715666
    Empirical Dispersion Energy =           0.0000000000000000
    VV10 Nonlocal Energy =                  0.0000000000000000
    Total Energy =                        -74.2190930399704314

  UHF NO Occupations:
  HONO-2 :    1 B1 2.0000000
  HONO-1 :    1 B2 2.0000000
  HONO-0 :    3 A1 2.0000000
  LUNO+0 :    4 A1 0.0000000
  LUNO+1 :    5 A1 0.0000000
  LUNO+2 :    6 A1 0.0000000
  LUNO+3 :    7 A1 0.0000000

Computation Completed

Properties will be evaluated at   0.000000,   0.000000,   0.000000 [a0]

Properties computed using the B3LYP density matrix

 Multipole Moments:

 ------------------------------------------------------------------------------------
     Multipole            Electronic (a.u.)      Nuclear  (a.u.)        Total (a.u.)
 ------------------------------------------------------------------------------------

 L = 1.  Multiply by 2.5417464519 to convert [e a0] to [Debye]
 Dipole X            :          0.0000000            0.0000000            0.0000000
 Dipole Y            :          0.0000000            0.0000000            0.0000000
 Dipole Z            :          0.2667838            0.3599130            0.6266968
 Magnitude           :                                                    0.6266968

 L = 2.  Multiply by 1.3450342976 to convert [e a0^2] to [Debye ang]
 Quadrupole XX       :         -5.8565747            0.0000000           -5.8565747
 Quadrupole XY       :          0.0000000            0.0000000            0.0000000
 Quadrupole XZ       :          0.0000000            0.0000000            0.0000000
 Quadrupole YY       :         -5.8565747            0.0000000           -5.8565747
 Quadrupole YZ       :          0.0000000            0.0000000            0.0000000
 Quadrupole ZZ       :         -5.4220611            0.5434234           -4.8786377
 Traceless XX        :         -0.1448379           -0.1811411           -0.3259790
 Traceless YY        :         -0.1448379           -0.1811411           -0.3259790
 Traceless ZZ        :          0.2896758            0.3622823            0.6519580

 ------------------------------------------------------------------------------------
  ==> Computing MBIS Charges <==

  Electron Count from Grid (Expected Number): 10.00000 (10.00000)
  Difference:  0.00000

  MBIS Charges: (a.u.)
   Center  Symbol  Z      Pop.       Charge
      1       O    8    9.431928   -1.431928
      2       H    1    0.568072    0.431928

  MBIS Dipoles: [e a0]
   Center  Symbol  Z        X           Y           Z
      1       O    8   -0.000000   -0.000000    0.235141
      2       H    1   -0.000000   -0.000000    0.012610

  MBIS Quadrupoles: [e a0^2]
   Center  Symbol  Z      XX        XY        XZ        YY        YZ        ZZ
      1       O    8   -5.7743   -0.0000   -0.0000   -5.7743    0.0000   -5.0238
      2       H    1   -0.0823    0.0000    0.0000   -0.0823    0.0000   -0.0761

  MBIS Octupoles: [e a0^3]
   Center  Symbol  Z      XXX       XXY       XXZ       XYY       XYZ       XZZ       YYY       YYZ       YZZ       ZZZ
      1       O    8   -0.0000   -0.0000    0.4526   -0.0000    0.0000   -0.0000   -0.0000    0.4526   -0.0000    1.2032
      2       H    1    0.0000   -0.0000    0.0027   -0.0000    0.0000   -0.0000   -0.0000    0.0027   -0.0000    0.0066

  MBIS Radial Moments:
   Center  Symbol  Z      [a0^2]      [a0^3]      [a0^4]
      1       O    8   16.572388   34.792646   86.935947
      2       H    1    0.240696    0.222159    0.246729

  MBIS Valence Widths: [a0]
   Center  Symbol  Z     Width
      1       O    8    0.421203
      2       H    1    0.190042

*** tstop() called on Mac.lan at Sun Aug 10 17:37:40 2025
Module time:
	user time   =       3.30 seconds =       0.06 minutes
	system time =       3.20 seconds =       0.05 minutes
	total time  =          1 seconds =       0.02 minutes
Total time:
	user time   =      11.95 seconds =       0.20 minutes
	system time =       5.53 seconds =       0.09 minutes
	total time  =          2 seconds =       0.03 minutes

    Psi4 stopped on: Sunday, 10 August 2025 05:37PM
    Psi4 wall time for execution: 0:00:01.72

*** Psi4 exiting successfully. Buy a developer a beer!
