                               Psi4 1.9.1 release

  ==> Input File <==

--------------------------------------------------------------------------
molecule {
-1 2
N           0.000000           0.000000           0.000000
N           0.000000           0.000000           0.527555
}

set {
basis              cc-pvtz
reference          uks
maxiter            500
DAMPING_PERCENTAGE 1
E_CONVERGENCE      1.0E-8
D_CONVERGENCE      1.0E-8
DIIS_MAX_VECS      400
MBIS_MAXITER       8000
guess              read
}

E, wfn = energy('b3lyp', restart_file='last_wfn', return_wfn=True)
properties('b3lyp','MBIS_CHARGES', wfn=wfn)
wfn.to_file('last_wfn')
--------------------------------------------------------------------------

    Molecular point group: d2h
  Charge       = -1
  Multiplicity = 2
  Basis Set: CC-PVTZ
    Blend: CC-PVTZ
  Basis Set: (CC-PVTZ AUX)
    Blend: CC-PVTZ-JKFIT
  @DF-UKS Final Energy:  -104.63600773059734
    Total Energy =                       -104.6360077305973419
 Dipole X            :          0.0000000            0.0000000            0.0000000
 Dipole Y            :          0.0000000            0.0000000            0.0000000
 Dipole Z            :          0.0000000            0.0000000            0.0000000
 Magnitude           :                                                    0.0000000
    Molecular point group: d2h

    Geometry (in Angstrom), charge = -1, multiplicity = 2:

       Center              X                  Y                   Z               Mass
    ------------   -----------------  -----------------  -----------------  -----------------
         N            0.000000000000     0.000000000000    -0.263777500000    14.003074004430
         N            0.000000000000     0.000000000000     0.263777500000    14.003074004430

  Charge       = -1
  Multiplicity = 2
  Basis Set: CC-PVTZ
    Blend: CC-PVTZ
  Basis Set: (CC-PVTZ AUX)
    Blend: CC-PVTZ-JKFIT

    Orbital Energies [Eh]
    ---------------------

    Alpha Occupied:

       1Ag   -14.536186     1B1u  -14.018346     2Ag    -0.717577
       1B2u   -0.569525     1B3u   -0.566171     3Ag    -0.061794
       2B1u   -0.057724     1B2g    0.458905

    Alpha Virtual:

       1B3g    0.532023     3B1u    0.534538     2B3u    0.535678
       2B2u    0.540359     4Ag     0.614031     5Ag     0.840331
       2B2g    1.046529     2B3g    1.059618     1B1g    1.161403
       6Ag     1.162041     4B1u    1.229716     3B3u    1.718055
       3B2u    1.719056     1Au     1.724997     5B1u    1.727372
       7Ag     1.806496     6B1u    1.810672     3B2g    2.131821
       3B3g    2.137205     4B2u    2.536205     4B3u    2.542240
       8Ag     3.291749     5B3u    3.800134     5B2u    3.800153
       7B1u    3.804888     2B1g    3.924696     9Ag     3.924991
       4B2g    4.124197     4B3g    4.124847     8B1u    4.326494
       2Au     4.385635     9B1u    4.386797     6B3u    4.389696
       6B2u    4.390806    10Ag     4.900030     5B2g    5.004885
       5B3g    5.004919     3B1g    5.066353    11Ag     5.066691
       6B3g    5.170731     6B2g    5.171985    12Ag     5.287151
      10B1u    6.557206    13Ag     7.428297     7B2u    7.461796
       7B3u    7.464078     3Au     7.596217    11B1u    7.596710
       7B2g    9.548994     7B3g    9.549536    12B1u   11.862477
      13B1u   31.933974

    Beta Occupied:

       1Ag   -14.535913     1B1u  -14.017874     2Ag    -0.713698
       1B2u   -0.568879     1B3u   -0.556247     3Ag    -0.056272
       2B1u   -0.042911

    Beta Virtual:

       1B3g    0.544573     2B2u    0.544827     3B1u    0.548723
       1B2g    0.563478     2B3u    0.566213     4Ag     0.629013
       5Ag     0.845073     2B3g    1.065743     2B2g    1.081831
       1B1g    1.168514     6Ag     1.168924     4B1u    1.252750
       3B2u    1.720499     3B3u    1.740751     5B1u    1.751312
       1Au     1.751689     7Ag     1.809068     6B1u    1.818067
       3B3g    2.140795     3B2g    2.156482     4B2u    2.537813
       4B3u    2.552736     8Ag     3.297362     5B2u    3.804786
       5B3u    3.804787     7B1u    3.813867     2B1g    3.928722
       9Ag     3.928828     4B3g    4.127260     4B2g    4.143014
       8B1u    4.328852     6B2u    4.389900     2Au     4.400688
       9B1u    4.401130     6B3u    4.402452    10Ag     4.905128
       5B3g    5.016897     5B2g    5.016910     3B1g    5.074679
      11Ag     5.075156     6B3g    5.170828     6B2g    5.184474
      12Ag     5.289925    10B1u    6.561409    13Ag     7.430079
       7B2u    7.461470     7B3u    7.472096     3Au     7.604906
      11B1u    7.604941     7B3g    9.550164     7B2g    9.560342
      12B1u   11.862852    13B1u   31.935706

    Final Occupation by Irrep:
             Ag   B1g   B2g   B3g    Au   B1u   B2u   B3u
    DOCC [     3,    0,    0,    0,    0,    2,    1,    1 ]
    SOCC [     0,    0,    1,    0,    0,    0,    0,    0 ]
    NA   [     3,    0,    1,    0,    0,    2,    1,    1 ]
    NB   [     3,    0,    0,    0,    0,    2,    1,    1 ]

  @DF-UKS Final Energy:  -104.63600773094002

   => Energetics <=

    Nuclear Repulsion Energy =             49.1506730536721292
    One-Electron Energy =                -238.1113370047451099
    Two-Electron Energy =                  96.7474723036046669
    DFT Exchange-Correlation Energy =     -12.4228160834717212
    Empirical Dispersion Energy =           0.0000000000000000
    VV10 Nonlocal Energy =                  0.0000000000000000
    Total Energy =                       -104.6360077309400225

  UHF NO Occupations:
  HONO-2 :    3 Ag 1.9998905
  HONO-1 :    2B1u 1.9998350
  HONO-0 :    1B2g 1.0000000
  LUNO+0 :    3B1u 0.0001650
  LUNO+1 :    4 Ag 0.0001095
  LUNO+2 :    2B3u 0.0000390
  LUNO+3 :    5 Ag 0.0000028

Computation Completed

Properties will be evaluated at   0.000000,   0.000000,   0.000000 [a0]

Properties computed using the B3LYP density matrix

 Multipole Moments:

 ------------------------------------------------------------------------------------
     Multipole            Electronic (a.u.)      Nuclear  (a.u.)        Total (a.u.)
 ------------------------------------------------------------------------------------

 L = 1.  Multiply by 2.5417464519 to convert [e a0] to [Debye]
 Dipole X            :          0.0000000            0.0000000            0.0000000
 Dipole Y            :          0.0000000            0.0000000            0.0000000
 Dipole Z            :          0.0000000            0.0000000            0.0000000
 Magnitude           :                                                    0.0000000

 L = 2.  Multiply by 1.3450342976 to convert [e a0^2] to [Debye ang]
 Quadrupole XX       :        -10.5215086            0.0000000          -10.5215086
 Quadrupole XY       :          0.0000000            0.0000000            0.0000000
 Quadrupole XZ       :          0.0000000            0.0000000            0.0000000
 Quadrupole YY       :         -7.5146812            0.0000000           -7.5146812
 Quadrupole YZ       :          0.0000000            0.0000000            0.0000000
 Quadrupole ZZ       :        -16.8572702            3.4785742          -13.3786961
 Traceless XX        :          1.1096447           -1.1595247           -0.0498800
 Traceless YY        :          4.1164722           -1.1595247            2.9569474
 Traceless ZZ        :         -5.2261169            2.3190494           -2.9070675

 ------------------------------------------------------------------------------------
  ==> Computing MBIS Charges <==

  Electron Count from Grid (Expected Number): 15.00000 (15.00000)
  Difference:  0.00000

  MBIS Charges: (a.u.)
   Center  Symbol  Z      Pop.       Charge
      1       N    7    7.500001   -0.500001
      2       N    7    7.500001   -0.500001

  MBIS Dipoles: [e a0]
   Center  Symbol  Z        X           Y           Z
      1       N    7    0.000000    0.000000    0.359943
      2       N    7    0.000000    0.000000   -0.359943

  MBIS Quadrupoles: [e a0^2]
   Center  Symbol  Z      XX        XY        XZ        YY        YZ        ZZ
      1       N    7   -5.2608   -0.0000   -0.0000   -3.7573   -0.0000   -6.2063
      2       N    7   -5.2608   -0.0000    0.0000   -3.7573    0.0000   -6.2063

  MBIS Octupoles: [e a0^3]
   Center  Symbol  Z      XXX       XXY       XXZ       XYY       XYZ       XZZ       YYY       YYZ       YZZ       ZZZ
      1       N    7    0.0000    0.0000    1.6658    0.0000    0.0000    0.0000    0.0000    0.7264    0.0000    1.7161
      2       N    7    0.0000    0.0000   -1.6658    0.0000   -0.0000    0.0000    0.0000   -0.7264    0.0000   -1.7161

  MBIS Radial Moments:
   Center  Symbol  Z      [a0^2]      [a0^3]      [a0^4]
      1       N    7   15.224368   38.552683   118.790728
      2       N    7   15.224368   38.552683   118.790728

  MBIS Valence Widths: [a0]
   Center  Symbol  Z     Width
      1       N    7    0.457536
      2       N    7    0.457536

*** tstop() called on Mac.lan at Sun Aug 10 17:33:09 2025
Module time:
	user time   =       3.58 seconds =       0.06 minutes
	system time =       3.35 seconds =       0.06 minutes
	total time  =          1 seconds =       0.02 minutes
Total time:
	user time   =      17.73 seconds =       0.30 minutes
	system time =       5.94 seconds =       0.10 minutes
	total time  =          2 seconds =       0.03 minutes

    Psi4 stopped on: Sunday, 10 August 2025 05:33PM
    Psi4 wall time for execution: 0:00:02.30

*** Psi4 exiting successfully. Buy a developer a beer!
