                               Psi4 1.9.1 release

  ==> Input File <==

--------------------------------------------------------------------------
molecule {
-1 2
O           0.000000           0.000000           0.000000
O           0.000000           0.000000           0.854200
}

set {
basis              cc-pvtz
reference          uks
maxiter            500
DAMPING_PERCENTAGE 1
E_CONVERGENCE      1.0E-8
D_CONVERGENCE      1.0E-8
DIIS_MAX_VECS      400
MBIS_MAXITER       8000
guess              read
}

E, wfn = energy('b3lyp', restart_file='last_wfn', return_wfn=True)
properties('b3lyp','MBIS_CHARGES', wfn=wfn)
wfn.to_file('last_wfn')
--------------------------------------------------------------------------

    Molecular point group: d2h
  Charge       = -1
  Multiplicity = 2
  Basis Set: CC-PVTZ
    Blend: CC-PVTZ
  Basis Set: (CC-PVTZ AUX)
    Blend: CC-PVTZ-JKFIT
  @DF-UKS Final Energy:  -149.72676390778659
    Total Energy =                       -149.7267639077865908
 Dipole X            :          0.0000000            0.0000000            0.0000000
 Dipole Y            :          0.0000000            0.0000000            0.0000000
 Dipole Z            :          0.0000000            0.0000000            0.0000000
 Magnitude           :                                                    0.0000000
    Molecular point group: d2h

    Geometry (in Angstrom), charge = -1, multiplicity = 2:

       Center              X                  Y                   Z               Mass
    ------------   -----------------  -----------------  -----------------  -----------------
         O            0.000000000000     0.000000000000    -0.427100000000    15.994914619570
         O            0.000000000000     0.000000000000     0.427100000000    15.994914619570

  Charge       = -1
  Multiplicity = 2
  Basis Set: CC-PVTZ
    Blend: CC-PVTZ
  Basis Set: (CC-PVTZ AUX)
    Blend: CC-PVTZ-JKFIT

    Orbital Energies [Eh]
    ---------------------

    Alpha Occupied:

       1Ag   -18.786468     1B1u  -18.780114     2Ag    -1.235037
       1B2u   -0.337298     1B3u   -0.298705     2B1u   -0.297025
       3Ag    -0.197125     1B3g    0.279308     1B2g    0.317429

    Alpha Virtual:

       3B1u    0.631176     2B2u    0.760933     2B3u    0.781512
       4Ag     0.804314     2B3g    0.969981     2B2g    0.993082
       5Ag     1.029688     4B1u    1.433775     1B1g    1.523749
       6Ag     1.524096     5B1u    1.655666     3B2u    1.959842
       3B3u    1.989757     1Au     2.165099     6B1u    2.165496
       7Ag     2.489105     3B3g    2.630630     3B2g    2.656189
       7B1u    3.199946     4B2u    3.776314     4B3u    3.809881
       8Ag     4.316275     4B3g    4.434213     4B2g    4.469935
       8B1u    4.798620     2B1g    5.020530     9Ag     5.020983
       5B2u    5.024457     5B3u    5.024470     6B2u    5.394285
       6B3u    5.424035     5B3g    5.868051     5B2g    5.868065
      10Ag     5.946891     6B3g    6.259817     6B2g    6.288684
      11Ag     6.444597     3B1g    6.444652     9B1u    6.591703
       2Au     6.592293    12Ag     6.855540    10B1u    6.901352
       3Au     7.223749    11B1u    7.224457     7B2u    7.343328
       7B3u    7.375351    12B1u    8.613788     7B3g    9.569201
       7B2g    9.601249    13Ag    10.138447    13B1u   27.461573

    Beta Occupied:

       1Ag   -18.774336     1B1u  -18.767846     2Ag    -1.218358
       1B3u   -0.288378     1B2u   -0.268617     2B1u   -0.257673
       3Ag    -0.172989     1B2g    0.330888

    Beta Virtual:

       1B3g    0.435436     3B1u    0.638719     2B2u    0.784789
       2B3u    0.785344     4Ag     0.809756     2B2g    1.001077
       2B3g    1.022342     5Ag     1.042925     4B1u    1.451917
       1B1g    1.541823     6Ag     1.542886     5B1u    1.678094
       3B3u    1.993410     3B2u    1.996748     1Au     2.197467
       6B1u    2.199115     7Ag     2.498487     3B2g    2.661275
       3B3g    2.667425     7B1u    3.214797     4B3u    3.818989
       4B2u    3.826267     8Ag     4.328250     4B2g    4.480291
       4B3g    4.488490     8B1u    4.821864     2B1g    5.035434
       9Ag     5.036368     5B3u    5.050748     5B2u    5.050888
       6B2u    5.427608     6B3u    5.428350     5B2g    5.902411
       5B3g    5.902602    10Ag     5.960500     6B2g    6.292974
       6B3g    6.298516     3B1g    6.487507    11Ag     6.489971
       2Au     6.635768     9B1u    6.638331    12Ag     6.873605
      10B1u    6.918525     3Au     7.249281    11B1u    7.250598
       7B3u    7.379650     7B2u    7.379894    12B1u    8.628445
       7B2g    9.607008     7B3g    9.608839    13Ag    10.157064
      13B1u   27.477914

    Final Occupation by Irrep:
             Ag   B1g   B2g   B3g    Au   B1u   B2u   B3u
    DOCC [     3,    0,    1,    0,    0,    2,    1,    1 ]
    SOCC [     0,    0,    0,    1,    0,    0,    0,    0 ]
    NA   [     3,    0,    1,    1,    0,    2,    1,    1 ]
    NB   [     3,    0,    1,    0,    0,    2,    1,    1 ]

  @DF-UKS Final Energy:  -149.72676390856418

   => Energetics <=

    Nuclear Repulsion Energy =             39.6480232766096918
    One-Electron Energy =                -289.6138081723612459
    Two-Electron Energy =                 114.7234915352665894
    DFT Exchange-Correlation Energy =     -14.4844705480792157
    Empirical Dispersion Energy =           0.0000000000000000
    VV10 Nonlocal Energy =                  0.0000000000000000
    Total Energy =                       -149.7267639085641804

  UHF NO Occupations:
  HONO-2 :    2B1u 1.9997984
  HONO-1 :    1B2u 1.9996826
  HONO-0 :    1B3g 1.0000000
  LUNO+0 :    2B2u 0.0003174
  LUNO+1 :    3B1u 0.0002016
  LUNO+2 :    4 Ag 0.0001095
  LUNO+3 :    2B2g 0.0000555

Computation Completed

Properties will be evaluated at   0.000000,   0.000000,   0.000000 [a0]

Properties computed using the B3LYP density matrix

 Multipole Moments:

 ------------------------------------------------------------------------------------
     Multipole            Electronic (a.u.)      Nuclear  (a.u.)        Total (a.u.)
 ------------------------------------------------------------------------------------

 L = 1.  Multiply by 2.5417464519 to convert [e a0] to [Debye]
 Dipole X            :          0.0000000            0.0000000            0.0000000
 Dipole Y            :          0.0000000            0.0000000            0.0000000
 Dipole Z            :          0.0000000            0.0000000            0.0000000
 Magnitude           :                                                    0.0000000

 L = 2.  Multiply by 1.3450342976 to convert [e a0^2] to [Debye ang]
 Quadrupole XX       :         -9.2296194            0.0000000           -9.2296194
 Quadrupole XY       :          0.0000000            0.0000000            0.0000000
 Quadrupole XZ       :          0.0000000            0.0000000            0.0000000
 Quadrupole YY       :         -8.1725066            0.0000000           -8.1725066
 Quadrupole YZ       :          0.0000000            0.0000000            0.0000000
 Quadrupole ZZ       :        -21.8228231           10.4226189          -11.4002041
 Traceless XX        :          3.8453637           -3.4742063            0.3711573
 Traceless YY        :          4.9024764           -3.4742063            1.4282701
 Traceless ZZ        :         -8.7478401            6.9484126           -1.7994274

 ------------------------------------------------------------------------------------
  ==> Computing MBIS Charges <==

  Electron Count from Grid (Expected Number): 17.00000 (17.00000)
  Difference: -0.00000

  MBIS Charges: (a.u.)
   Center  Symbol  Z      Pop.       Charge
      1       O    8    8.500000   -0.500000
      2       O    8    8.500000   -0.500000

  MBIS Dipoles: [e a0]
   Center  Symbol  Z        X           Y           Z
      1       O    8   -0.000000   -0.000000    0.390119
      2       O    8   -0.000000   -0.000000   -0.390119

  MBIS Quadrupoles: [e a0^2]
   Center  Symbol  Z      XX        XY        XZ        YY        YZ        ZZ
      1       O    8   -4.6148    0.0000    0.0000   -4.0863   -0.0000   -4.7447
      2       O    8   -4.6148    0.0000   -0.0000   -4.0863    0.0000   -4.7447

  MBIS Octupoles: [e a0^3]
   Center  Symbol  Z      XXX       XXY       XXZ       XYY       XYZ       XZZ       YYY       YYZ       YZZ       ZZZ
      1       O    8   -0.0000   -0.0000    0.8899    0.0000   -0.0000   -0.0000    0.0000    0.6238    0.0000    0.3738
      2       O    8   -0.0000   -0.0000   -0.8899   -0.0000    0.0000   -0.0000    0.0000   -0.6238   -0.0000   -0.3738

  MBIS Radial Moments:
   Center  Symbol  Z      [a0^2]      [a0^3]      [a0^4]
      1       O    8   13.445727   27.365013   66.996041
      2       O    8   13.445727   27.365013   66.996041

  MBIS Valence Widths: [a0]
   Center  Symbol  Z     Width
      1       O    8    0.402858
      2       O    8    0.402858

*** tstop() called on Mac.lan at Sun Aug 10 17:27:33 2025
Module time:
	user time   =       3.48 seconds =       0.06 minutes
	system time =       2.55 seconds =       0.04 minutes
	total time  =          1 seconds =       0.02 minutes
Total time:
	user time   =      16.65 seconds =       0.28 minutes
	system time =       4.98 seconds =       0.08 minutes
	total time  =          2 seconds =       0.03 minutes

    Psi4 stopped on: Sunday, 10 August 2025 05:27PM
    Psi4 wall time for execution: 0:00:02.10

*** Psi4 exiting successfully. Buy a developer a beer!
