                               Psi4 1.9.1 release

  ==> Input File <==

--------------------------------------------------------------------------
molecule {
-1 1
N           0.000000           0.000000           0.000000
C           0.000000           0.000000           0.601996
}

set {
basis              cc-pvtz
reference          uks
maxiter            500
DAMPING_PERCENTAGE 1
E_CONVERGENCE      1.0E-8
D_CONVERGENCE      1.0E-8
DIIS_MAX_VECS      400
MBIS_MAXITER       8000
guess              read
}

E, wfn = energy('b3lyp', restart_file='last_wfn', return_wfn=True)
properties('b3lyp','MBIS_CHARGES', wfn=wfn)
wfn.to_file('last_wfn')
--------------------------------------------------------------------------

    Molecular point group: c2v
  Charge       = -1
  Multiplicity = 1
  Basis Set: CC-PVTZ
    Blend: CC-PVTZ
  Basis Set: (CC-PVTZ AUX)
    Blend: CC-PVTZ-JKFIT
  @DF-UKS Final Energy:   -90.04000962784887
    Total Energy =                        -90.0400096278488746
 Dipole X            :          0.0000000            0.0000000            0.0000000
 Dipole Y            :          0.0000000            0.0000000            0.0000000
 Dipole Z            :         -0.5201118            0.0008069           -0.5193049
 Magnitude           :                                                    0.5193049
    Molecular point group: c2v

    Geometry (in Angstrom), charge = -1, multiplicity = 1:

       Center              X                  Y                   Z               Mass
    ------------   -----------------  -----------------  -----------------  -----------------
         N            0.000000000000     0.000000000000    -0.277811461782    14.003074004430
         C            0.000000000000     0.000000000000     0.324184538218    12.000000000000

  Charge       = -1
  Multiplicity = 1
  Basis Set: CC-PVTZ
    Blend: CC-PVTZ
  Basis Set: (CC-PVTZ AUX)
    Blend: CC-PVTZ-JKFIT

    Orbital Energies [Eh]
    ---------------------

    Alpha Occupied:

       1A1   -14.022092     2A1    -9.920275     3A1    -0.503839
       1B1    -0.283628     1B2    -0.283628     4A1     0.041169
       5A1     0.068160

    Alpha Virtual:

       2B1     0.415420     2B2     0.415420     6A1     0.431356
       7A1     0.539907     3B1     0.601002     3B2     0.601002
       8A1     0.777715     4B1     0.953837     4B2     0.953837
       9A1     0.959459     1A2     0.959459    10A1     1.211539
       5B1     1.449049     5B2     1.449049    11A1     1.528738
       2A2     1.633394    12A1     1.633394     6B1     1.708494
       6B2     1.708494    13A1     1.861662     7B1     2.468267
       7B2     2.468267    14A1     2.548120     8B2     2.991922
       8B1     2.991922    15A1     3.139674    16A1     3.199371
       3A2     3.199371     9B1     3.361503     9B2     3.361503
      17A1     3.459368     4A2     3.477088    18A1     3.477088
      10B1     3.854802    10B2     3.854802    19A1     4.290352
      11B1     4.585861    11B2     4.585861    12B2     4.681101
      12B1     4.681101     5A2     4.860788    20A1     4.860788
      21A1     5.325866    13B1     6.118181    13B2     6.118181
       6A2     6.461247    22A1     6.461248    23A1     6.653613
      24A1     7.041782    14B1     7.706180    14B2     7.706180
      25A1     9.094941    26A1    21.789884

    Beta Occupied:

       1A1   -14.022092     2A1    -9.920275     3A1    -0.503839
       1B1    -0.283628     1B2    -0.283628     4A1     0.041169
       5A1     0.068160

    Beta Virtual:

       2B1     0.415420     2B2     0.415420     6A1     0.431356
       7A1     0.539907     3B1     0.601002     3B2     0.601002
       8A1     0.777715     4B1     0.953837     4B2     0.953837
       9A1     0.959459     1A2     0.959459    10A1     1.211539
       5B1     1.449049     5B2     1.449049    11A1     1.528738
       2A2     1.633394    12A1     1.633394     6B1     1.708494
       6B2     1.708494    13A1     1.861662     7B1     2.468267
       7B2     2.468267    14A1     2.548120     8B2     2.991922
       8B1     2.991922    15A1     3.139674    16A1     3.199371
       3A2     3.199371     9B1     3.361503     9B2     3.361503
      17A1     3.459368     4A2     3.477088    18A1     3.477088
      10B1     3.854802    10B2     3.854802    19A1     4.290352
      11B1     4.585861    11B2     4.585861    12B2     4.681101
      12B1     4.681101     5A2     4.860788    20A1     4.860788
      21A1     5.325866    13B1     6.118181    13B2     6.118181
       6A2     6.461247    22A1     6.461248    23A1     6.653613
      24A1     7.041782    14B1     7.706180    14B2     7.706180
      25A1     9.094941    26A1    21.789884

    Final Occupation by Irrep:
             A1    A2    B1    B2
    DOCC [     5,    0,    1,    1 ]
    SOCC [     0,    0,    0,    0 ]
    NA   [     5,    0,    1,    1 ]
    NB   [     5,    0,    1,    1 ]

  @DF-UKS Final Energy:   -90.04000962820383

   => Energetics <=

    Nuclear Repulsion Energy =             36.9195855921634077
    One-Electron Energy =                -196.2463567372965940
    Two-Electron Energy =                  80.2456561473385364
    DFT Exchange-Correlation Energy =     -10.9588946304091728
    Empirical Dispersion Energy =           0.0000000000000000
    VV10 Nonlocal Energy =                  0.0000000000000000
    Total Energy =                        -90.0400096282038334

  UHF NO Occupations:
  HONO-2 :    4 A1 2.0000000
  HONO-1 :    1 B1 2.0000000
  HONO-0 :    5 A1 2.0000000
  LUNO+0 :    6 A1 0.0000000
  LUNO+1 :    7 A1 0.0000000
  LUNO+2 :    8 A1 0.0000000
  LUNO+3 :    9 A1 0.0000000

Computation Completed

Properties will be evaluated at   0.000000,   0.000000,   0.000000 [a0]

Properties computed using the B3LYP density matrix

 Multipole Moments:

 ------------------------------------------------------------------------------------
     Multipole            Electronic (a.u.)      Nuclear  (a.u.)        Total (a.u.)
 ------------------------------------------------------------------------------------

 L = 1.  Multiply by 2.5417464519 to convert [e a0] to [Debye]
 Dipole X            :          0.0000000            0.0000000            0.0000000
 Dipole Y            :          0.0000000            0.0000000            0.0000000
 Dipole Z            :         -0.5201118            0.0008069           -0.5193049
 Magnitude           :                                                    0.5193049

 L = 2.  Multiply by 1.3450342976 to convert [e a0^2] to [Debye ang]
 Quadrupole XX       :         -8.3703797            0.0000000           -8.3703797
 Quadrupole XY       :          0.0000000            0.0000000            0.0000000
 Quadrupole XZ       :          0.0000000            0.0000000            0.0000000
 Quadrupole YY       :         -8.3703797            0.0000000           -8.3703797
 Quadrupole YZ       :          0.0000000            0.0000000            0.0000000
 Quadrupole ZZ       :        -16.9464573            4.1811032          -12.7653541
 Traceless XX        :          2.8586925           -1.3937011            1.4649915
 Traceless YY        :          2.8586925           -1.3937011            1.4649915
 Traceless ZZ        :         -5.7173851            2.7874021           -2.9299829

 ------------------------------------------------------------------------------------
  ==> Computing MBIS Charges <==

  Electron Count from Grid (Expected Number): 14.00000 (14.00000)
  Difference:  0.00000

  MBIS Charges: (a.u.)
   Center  Symbol  Z      Pop.       Charge
      1       N    7    7.305659   -0.305659
      2       C    6    6.694342   -0.694342

  MBIS Dipoles: [e a0]
   Center  Symbol  Z        X           Y           Z
      1       N    7   -0.000000   -0.000000    0.136290
      2       C    6    0.000000   -0.000000   -0.390694

  MBIS Quadrupoles: [e a0^2]
   Center  Symbol  Z      XX        XY        XZ        YY        YZ        ZZ
      1       N    7   -3.3046    0.0000    0.0000   -3.3046   -0.0000   -4.3713
      2       C    6   -5.0658    0.0000    0.0000   -5.0658    0.0000   -7.4274

  MBIS Octupoles: [e a0^3]
   Center  Symbol  Z      XXX       XXY       XXZ       XYY       XYZ       XZZ       YYY       YYZ       YZZ       ZZZ
      1       N    7   -0.0000   -0.0000    0.3546   -0.0000   -0.0000   -0.0000   -0.0000    0.3546    0.0000    1.4910
      2       C    6   -0.0000   -0.0000   -0.9825   -0.0000   -0.0000    0.0000    0.0000   -0.9825    0.0000   -2.0804

  MBIS Radial Moments:
   Center  Symbol  Z      [a0^2]      [a0^3]      [a0^4]
      1       N    7   10.980476   22.042874   53.752328
      2       C    6   17.559011   47.977030   155.647614

  MBIS Valence Widths: [a0]
   Center  Symbol  Z     Width
      1       N    7    0.397969
      2       C    6    0.539596

*** tstop() called on Mac.lan at Sun Aug 10 17:39:50 2025
Module time:
	user time   =       5.07 seconds =       0.08 minutes
	system time =       2.28 seconds =       0.04 minutes
	total time  =          1 seconds =       0.02 minutes
Total time:
	user time   =      19.00 seconds =       0.32 minutes
	system time =       4.70 seconds =       0.08 minutes
	total time  =          2 seconds =       0.03 minutes

    Psi4 stopped on: Sunday, 10 August 2025 05:39PM
    Psi4 wall time for execution: 0:00:02.32

*** Psi4 exiting successfully. Buy a developer a beer!
