                               Psi4 1.9.1 release

  ==> Input File <==

--------------------------------------------------------------------------
molecule {
-1 2
H           0.000000           0.000000           0.000000
H           0.000000           0.000000           1.363185
}

set {
basis              cc-pvtz
reference          uks
maxiter            500
DAMPING_PERCENTAGE 1
E_CONVERGENCE      1.0E-8
D_CONVERGENCE      1.0E-8
DIIS_MAX_VECS      400
MBIS_MAXITER       8000
guess              read
}

E, wfn = energy('b3lyp', restart_file='last_wfn', return_wfn=True)
properties('b3lyp','MBIS_CHARGES', wfn=wfn)
wfn.to_file('last_wfn')
--------------------------------------------------------------------------

    Molecular point group: d2h
  Charge       = -1
  Multiplicity = 2
  Basis Set: CC-PVTZ
    Blend: CC-PVTZ
  Basis Set: (CC-PVTZ AUX)
    Blend: CC-PVTZ-JKFIT
  @DF-UKS Final Energy:    -1.05773535755426
    Total Energy =                         -1.0577353575542641
 Dipole X            :          0.0000000            0.0000000            0.0000000
 Dipole Y            :          0.0000000            0.0000000            0.0000000
 Dipole Z            :          0.0000000            0.0000000            0.0000000
 Magnitude           :                                                    0.0000000
    Molecular point group: d2h

    Geometry (in Angstrom), charge = -1, multiplicity = 2:

       Center              X                  Y                   Z               Mass
    ------------   -----------------  -----------------  -----------------  -----------------
         H            0.000000000000     0.000000000000    -0.681592500000     1.007825032230
         H            0.000000000000     0.000000000000     0.681592500000     1.007825032230

  Charge       = -1
  Multiplicity = 2
  Basis Set: CC-PVTZ
    Blend: CC-PVTZ
  Basis Set: (CC-PVTZ AUX)
    Blend: CC-PVTZ-JKFIT

    Orbital Energies [Eh]
    ---------------------

    Alpha Occupied:

       1Ag    -0.048457     1B1u    0.137190

    Alpha Virtual:

       2Ag     0.487735     2B1u    0.557945     1B2u    0.798860
       1B3u    0.798860     3Ag     0.974159     1B3g    1.072788
       1B2g    1.072788     3B1u    1.471018     4Ag     2.556640
       4B1u    2.699115     5Ag     3.175057     2B2u    3.175350
       2B3u    3.175350     1B1g    3.408004     6Ag     3.408004
       1Au     3.622513     5B1u    3.622514     3B2u    3.898755
       3B3u    3.898755     2B3g    3.917645     2B2g    3.917645
       6B1u    4.076782     3B3g    4.248081     3B2g    4.248081
       7Ag     4.415281     7B1u    5.404791

    Beta Occupied:

       1Ag     0.000669

    Beta Virtual:

       1B1u    0.244130     2Ag     0.508672     2B1u    0.608820
       1B3u    0.820561     1B2u    0.820561     3Ag     1.015828
       1B2g    1.114107     1B3g    1.114107     3B1u    1.514871
       4Ag     2.620033     4B1u    2.758803     5Ag     3.199032
       2B2u    3.207146     2B3u    3.207146     1B1g    3.445845
       6Ag     3.445845     1Au     3.663505     5B1u    3.663506
       3B2u    3.952813     3B3u    3.952813     2B3g    3.963431
       2B2g    3.963431     6B1u    4.134546     3B3g    4.297368
       3B2g    4.297368     7Ag     4.470166     7B1u    5.444584

    Final Occupation by Irrep:
             Ag   B1g   B2g   B3g    Au   B1u   B2u   B3u
    DOCC [     1,    0,    0,    0,    0,    0,    0,    0 ]
    SOCC [     0,    0,    0,    0,    0,    1,    0,    0 ]
    NA   [     1,    0,    0,    0,    0,    1,    0,    0 ]
    NB   [     1,    0,    0,    0,    0,    0,    0,    0 ]

  @DF-UKS Final Energy:    -1.05773536643241

   => Energetics <=

    Nuclear Repulsion Energy =              0.3881917793036160
    One-Electron Energy =                  -2.4926812379397978
    Two-Electron Energy =                   1.7200171855969655
    DFT Exchange-Correlation Energy =      -0.6732630933931902
    Empirical Dispersion Energy =           0.0000000000000000
    VV10 Nonlocal Energy =                  0.0000000000000000
    Total Energy =                         -1.0577353664324063

  UHF NO Occupations:
  HONO-1 :    1 Ag 1.9985638
  HONO-0 :    1B1u 1.0000000
  LUNO+0 :    2 Ag 0.0014362
  LUNO+1 :    3 Ag 0.0000000
  LUNO+2 :    4 Ag 0.0000000
  LUNO+3 :    2B1u 0.0000000

Computation Completed

Properties will be evaluated at   0.000000,   0.000000,   0.000000 [a0]

Properties computed using the B3LYP density matrix

 Multipole Moments:

 ------------------------------------------------------------------------------------
     Multipole            Electronic (a.u.)      Nuclear  (a.u.)        Total (a.u.)
 ------------------------------------------------------------------------------------

 L = 1.  Multiply by 2.5417464519 to convert [e a0] to [Debye]
 Dipole X            :          0.0000000            0.0000000            0.0000000
 Dipole Y            :          0.0000000            0.0000000            0.0000000
 Dipole Z            :          0.0000000            0.0000000            0.0000000
 Magnitude           :                                                    0.0000000

 L = 2.  Multiply by 1.3450342976 to convert [e a0^2] to [Debye ang]
 Quadrupole XX       :         -4.3408832            0.0000000           -4.3408832
 Quadrupole XY       :          0.0000000            0.0000000            0.0000000
 Quadrupole XZ       :          0.0000000            0.0000000            0.0000000
 Quadrupole YY       :         -4.3408832            0.0000000           -4.3408832
 Quadrupole YZ       :          0.0000000            0.0000000            0.0000000
 Quadrupole ZZ       :        -11.1116302            3.3180073           -7.7936229
 Traceless XX        :          2.2569157           -1.1060024            1.1509133
 Traceless YY        :          2.2569157           -1.1060024            1.1509133
 Traceless ZZ        :         -4.5138314            2.2120049           -2.3018265

 ------------------------------------------------------------------------------------
  ==> Computing MBIS Charges <==

  Electron Count from Grid (Expected Number):  3.00000 ( 3.00000)
  Difference:  0.00000

  MBIS Charges: (a.u.)
   Center  Symbol  Z      Pop.       Charge
      1       H    1    1.500000   -0.500000
      2       H    1    1.500000   -0.500000

  MBIS Dipoles: [e a0]
   Center  Symbol  Z        X           Y           Z
      1       H    1    0.000000   -0.000000    0.201809
      2       H    1   -0.000000   -0.000000   -0.201809

  MBIS Quadrupoles: [e a0^2]
   Center  Symbol  Z      XX        XY        XZ        YY        YZ        ZZ
      1       H    1   -2.1704    0.0000   -0.0000   -2.1704    0.0000   -2.5474
      2       H    1   -2.1704    0.0000   -0.0000   -2.1704   -0.0000   -2.5474

  MBIS Octupoles: [e a0^3]
   Center  Symbol  Z      XXX       XXY       XXZ       XYY       XYZ       XZZ       YYY       YYZ       YZZ       ZZZ
      1       H    1   -0.0000   -0.0000    0.4505    0.0000    0.0000   -0.0000    0.0000    0.4505   -0.0000    0.7661
      2       H    1   -0.0000    0.0000   -0.4505   -0.0000   -0.0000    0.0000    0.0000   -0.4505    0.0000   -0.7661

  MBIS Radial Moments:
   Center  Symbol  Z      [a0^2]      [a0^3]      [a0^4]
      1       H    1    6.888324   20.926930   73.957572
      2       H    1    6.888324   20.926930   73.957572

  MBIS Valence Widths: [a0]
   Center  Symbol  Z     Width
      1       H    1    0.617690
      2       H    1    0.617690

*** tstop() called on Mac.lan at Sun Aug 10 17:26:24 2025
Module time:
	user time   =       0.46 seconds =       0.01 minutes
	system time =       1.48 seconds =       0.02 minutes
	total time  =          0 seconds =       0.00 minutes
Total time:
	user time   =       1.54 seconds =       0.03 minutes
	system time =       3.50 seconds =       0.06 minutes
	total time  =          1 seconds =       0.02 minutes

    Psi4 stopped on: Sunday, 10 August 2025 05:26PM
    Psi4 wall time for execution: 0:00:00.78

*** Psi4 exiting successfully. Buy a developer a beer!
