                               Psi4 1.9.1 release

  ==> Input File <==

--------------------------------------------------------------------------
molecule {
-1 2
H           0.000000           0.000000           0.000000
H           0.000000           0.000000           1.335874
}

set {
basis              cc-pvtz
reference          uks
maxiter            500
DAMPING_PERCENTAGE 1
E_CONVERGENCE      1.0E-8
D_CONVERGENCE      1.0E-8
DIIS_MAX_VECS      400
MBIS_MAXITER       8000
guess              read
}

E, wfn = energy('b3lyp', restart_file='last_wfn', return_wfn=True)
properties('b3lyp','MBIS_CHARGES', wfn=wfn)
wfn.to_file('last_wfn')
--------------------------------------------------------------------------

    Molecular point group: d2h
  Charge       = -1
  Multiplicity = 2
  Basis Set: CC-PVTZ
    Blend: CC-PVTZ
  Basis Set: (CC-PVTZ AUX)
    Blend: CC-PVTZ-JKFIT
  @DF-UKS Final Energy:    -1.05782164798634
    Total Energy =                         -1.0578216479863398
 Dipole X            :          0.0000000            0.0000000            0.0000000
 Dipole Y            :          0.0000000            0.0000000            0.0000000
 Dipole Z            :          0.0000000            0.0000000            0.0000000
 Magnitude           :                                                    0.0000000
    Molecular point group: d2h

    Geometry (in Angstrom), charge = -1, multiplicity = 2:

       Center              X                  Y                   Z               Mass
    ------------   -----------------  -----------------  -----------------  -----------------
         H            0.000000000000     0.000000000000    -0.667937000000     1.007825032230
         H            0.000000000000     0.000000000000     0.667937000000     1.007825032230

  Charge       = -1
  Multiplicity = 2
  Basis Set: CC-PVTZ
    Blend: CC-PVTZ
  Basis Set: (CC-PVTZ AUX)
    Blend: CC-PVTZ-JKFIT

    Orbital Energies [Eh]
    ---------------------

    Alpha Occupied:

       1Ag    -0.050648     1B1u    0.141200

    Alpha Virtual:

       2Ag     0.485560     2B1u    0.561407     1B2u    0.798155
       1B3u    0.798155     3Ag     0.983446     1B2g    1.078858
       1B3g    1.078858     3B1u    1.479555     4Ag     2.562073
       4B1u    2.701746     2B2u    3.169591     2B3u    3.169591
       5Ag     3.180050     1B1g    3.397898     6Ag     3.397898
       1Au     3.634878     5B1u    3.634879     3B2u    3.900133
       3B3u    3.900133     2B2g    3.932050     2B3g    3.932050
       6B1u    4.083240     3B2g    4.283383     3B3g    4.283383
       7Ag     4.448149     7B1u    5.470536

    Beta Occupied:

       1Ag    -0.002537

    Beta Virtual:

       1B1u    0.247333     2Ag     0.506051     2B1u    0.612253
       1B2u    0.819252     1B3u    0.819252     3Ag     1.025392
       1B2g    1.119944     1B3g    1.119944     3B1u    1.523270
       4Ag     2.623059     4B1u    2.759913     2B2u    3.199747
       2B3u    3.199747     5Ag     3.203789     1B1g    3.434403
       6Ag     3.434403     1Au     3.674885     5B1u    3.674886
       3B2u    3.953129     3B3u    3.953129     2B2g    3.978311
       2B3g    3.978311     6B1u    4.141010     3B2g    4.330290
       3B3g    4.330290     7Ag     4.502006     7B1u    5.508996

    Final Occupation by Irrep:
             Ag   B1g   B2g   B3g    Au   B1u   B2u   B3u
    DOCC [     1,    0,    0,    0,    0,    0,    0,    0 ]
    SOCC [     0,    0,    0,    0,    0,    1,    0,    0 ]
    NA   [     1,    0,    0,    0,    0,    1,    0,    0 ]
    NB   [     1,    0,    0,    0,    0,    0,    0,    0 ]

  @DF-UKS Final Energy:    -1.05782164811485

   => Energetics <=

    Nuclear Repulsion Energy =              0.3961280859347514
    One-Electron Energy =                  -2.5067233811197749
    Two-Electron Energy =                   1.7269931682940638
    DFT Exchange-Correlation Energy =      -0.6742195212238949
    Empirical Dispersion Energy =           0.0000000000000000
    VV10 Nonlocal Energy =                  0.0000000000000000
    Total Energy =                         -1.0578216481148548

  UHF NO Occupations:
  HONO-1 :    1 Ag 1.9986708
  HONO-0 :    1B1u 1.0000000
  LUNO+0 :    2 Ag 0.0013292
  LUNO+1 :    3 Ag 0.0000000
  LUNO+2 :    4 Ag 0.0000000
  LUNO+3 :    2B1u 0.0000000

Computation Completed

Properties will be evaluated at   0.000000,   0.000000,   0.000000 [a0]

Properties computed using the B3LYP density matrix

 Multipole Moments:

 ------------------------------------------------------------------------------------
     Multipole            Electronic (a.u.)      Nuclear  (a.u.)        Total (a.u.)
 ------------------------------------------------------------------------------------

 L = 1.  Multiply by 2.5417464519 to convert [e a0] to [Debye]
 Dipole X            :          0.0000000            0.0000000            0.0000000
 Dipole Y            :          0.0000000            0.0000000            0.0000000
 Dipole Z            :          0.0000000            0.0000000            0.0000000
 Magnitude           :                                                    0.0000000

 L = 2.  Multiply by 1.3450342976 to convert [e a0^2] to [Debye ang]
 Quadrupole XX       :         -4.3358829            0.0000000           -4.3358829
 Quadrupole XY       :          0.0000000            0.0000000            0.0000000
 Quadrupole XZ       :          0.0000000            0.0000000            0.0000000
 Quadrupole YY       :         -4.3358829            0.0000000           -4.3358829
 Quadrupole YZ       :          0.0000000            0.0000000            0.0000000
 Quadrupole ZZ       :        -10.9922229            3.1863886           -7.8058344
 Traceless XX        :          2.2187800           -1.0621295            1.1566505
 Traceless YY        :          2.2187800           -1.0621295            1.1566505
 Traceless ZZ        :         -4.4375601            2.1242590           -2.3133010

 ------------------------------------------------------------------------------------
  ==> Computing MBIS Charges <==

  Electron Count from Grid (Expected Number):  3.00000 ( 3.00000)
  Difference:  0.00000

  MBIS Charges: (a.u.)
   Center  Symbol  Z      Pop.       Charge
      1       H    1    1.500000   -0.500000
      2       H    1    1.500000   -0.500000

  MBIS Dipoles: [e a0]
   Center  Symbol  Z        X           Y           Z
      1       H    1    0.000000   -0.000000    0.209151
      2       H    1   -0.000000    0.000000   -0.209151

  MBIS Quadrupoles: [e a0^2]
   Center  Symbol  Z      XX        XY        XZ        YY        YZ        ZZ
      1       H    1   -2.1679   -0.0000   -0.0000   -2.1679   -0.0000   -2.5783
      2       H    1   -2.1679   -0.0000   -0.0000   -2.1679    0.0000   -2.5783

  MBIS Octupoles: [e a0^3]
   Center  Symbol  Z      XXX       XXY       XXZ       XYY       XYZ       XZZ       YYY       YYZ       YZZ       ZZZ
      1       H    1    0.0000   -0.0000    0.4742   -0.0000    0.0000    0.0000   -0.0000    0.4742   -0.0000    0.8104
      2       H    1   -0.0000   -0.0000   -0.4742    0.0000   -0.0000    0.0000   -0.0000   -0.4742    0.0000   -0.8104

  MBIS Radial Moments:
   Center  Symbol  Z      [a0^2]      [a0^3]      [a0^4]
      1       H    1    6.914214   21.058680   74.610955
      2       H    1    6.914214   21.058680   74.610955

  MBIS Valence Widths: [a0]
   Center  Symbol  Z     Width
      1       H    1    0.618635
      2       H    1    0.618635

*** tstop() called on Mac.lan at Sun Aug 10 17:26:23 2025
Module time:
	user time   =       0.57 seconds =       0.01 minutes
	system time =       1.35 seconds =       0.02 minutes
	total time  =          1 seconds =       0.02 minutes
Total time:
	user time   =       1.76 seconds =       0.03 minutes
	system time =       3.39 seconds =       0.06 minutes
	total time  =          1 seconds =       0.02 minutes

    Psi4 stopped on: Sunday, 10 August 2025 05:26PM
    Psi4 wall time for execution: 0:00:00.83

*** Psi4 exiting successfully. Buy a developer a beer!
