                               Psi4 1.9.1 release

  ==> Input File <==

--------------------------------------------------------------------------
molecule {
-1 3
C           0.000000           0.000000           0.000000
H           0.000000           0.000000           0.727204
}

set {
basis              cc-pvtz
reference          uks
maxiter            500
DAMPING_PERCENTAGE 1
E_CONVERGENCE      1.0E-8
D_CONVERGENCE      1.0E-8
DIIS_MAX_VECS      400
MBIS_MAXITER       8000
guess              read
}

E, wfn = energy('b3lyp', restart_file='last_wfn', return_wfn=True)
properties('b3lyp','MBIS_CHARGES', wfn=wfn)
wfn.to_file('last_wfn')
--------------------------------------------------------------------------

    Molecular point group: c2v
  Charge       = -1
  Multiplicity = 3
  Basis Set: CC-PVTZ
    Blend: CC-PVTZ
  Basis Set: (CC-PVTZ AUX)
    Blend: CC-PVTZ-JKFIT
  @DF-UKS Final Energy:   -38.33190930086964
    Total Energy =                        -38.3319093008696257
 Dipole X            :          0.0000000            0.0000000            0.0000000
 Dipole Y            :          0.0000000            0.0000000            0.0000000
 Dipole Z            :          0.2983866            0.6289121            0.9272987
 Magnitude           :                                                    0.9272987
    Molecular point group: c2v

    Geometry (in Angstrom), charge = -1, multiplicity = 3:

       Center              X                  Y                   Z               Mass
    ------------   -----------------  -----------------  -----------------  -----------------
         C            0.000000000000     0.000000000000    -0.056342577865    12.000000000000
         H            0.000000000000     0.000000000000     0.670861422135     1.007825032230

  Charge       = -1
  Multiplicity = 3
  Basis Set: CC-PVTZ
    Blend: CC-PVTZ
  Basis Set: (CC-PVTZ AUX)
    Blend: CC-PVTZ-JKFIT

    Orbital Energies [Eh]
    ---------------------

    Alpha Occupied:

       1A1    -9.821852     2A1    -0.400267     3A1     0.024331
       1B2     0.094318     1B1     0.094318

    Alpha Virtual:

       4A1     0.298256     5A1     0.541686     2B1     0.576822
       2B2     0.576822     6A1     0.675849     7A1     0.940692
       3B2     0.953034     3B1     0.953034     8A1     0.971658
       1A2     0.971658     9A1     1.318579     4B2     1.395603
       4B1     1.395603    10A1     2.199705     5B2     2.273555
       5B1     2.273555    11A1     2.359864    12A1     2.604561
       2A2     2.957025    13A1     2.957025     6B2     3.005949
       6B1     3.005949     7B1     3.099850     7B2     3.099850
       3A2     3.245941    14A1     3.245941     8B2     3.381562
       8B1     3.381562    15A1     3.417313    16A1     4.245169
      17A1     4.411871     4A2     4.411871     9B1     4.446089
       9B2     4.446089    18A1     6.060700    10B2     6.106508
      10B1     6.106508    19A1     6.811104    20A1    14.430084

    Beta Occupied:

       1A1    -9.799217     2A1    -0.335628     3A1     0.067871

    Beta Virtual:

       1B2     0.249419     1B1     0.249419     4A1     0.303577
       5A1     0.558167     2B1     0.645957     2B2     0.645957
       6A1     0.712792     7A1     0.964237     3B2     0.991217
       3B1     0.991217     1A2     1.048236     8A1     1.048236
       9A1     1.337432     4B2     1.416233     4B1     1.416233
      10A1     2.238314     5B2     2.350022     5B1     2.350022
      11A1     2.376680    12A1     2.661261    13A1     3.014201
       2A2     3.014201     6B2     3.100835     6B1     3.100835
       7B1     3.146052     7B2     3.146052    14A1     3.351980
       3A2     3.351981     8B2     3.417717     8B1     3.417717
      15A1     3.448475    16A1     4.266387     4A2     4.451046
      17A1     4.451046     9B1     4.466825     9B2     4.466825
      18A1     6.084528    10B2     6.139449    10B1     6.139449
      19A1     6.821700    20A1    14.456394

    Final Occupation by Irrep:
             A1    A2    B1    B2
    DOCC [     3,    0,    0,    0 ]
    SOCC [     0,    0,    1,    1 ]
    NA   [     3,    0,    1,    1 ]
    NB   [     3,    0,    0,    0 ]

  @DF-UKS Final Energy:   -38.33190929998790

   => Energetics <=

    Nuclear Repulsion Energy =              4.3661245868009528
    One-Electron Energy =                 -61.7753937198716088
    Two-Electron Energy =                  23.9974355828098460
    DFT Exchange-Correlation Energy =      -4.9200757497270793
    Empirical Dispersion Energy =           0.0000000000000000
    VV10 Nonlocal Energy =                  0.0000000000000000
    Total Energy =                        -38.3319092999878848

  UHF NO Occupations:
  HONO-2 :    3 A1 1.9977104
  HONO-1 :    1 B1 1.0000000
  HONO-0 :    1 B2 1.0000000
  LUNO+0 :    4 A1 0.0022896
  LUNO+1 :    5 A1 0.0001909
  LUNO+2 :    6 A1 0.0000011
  LUNO+3 :    7 A1 0.0000000

Computation Completed

Properties will be evaluated at   0.000000,   0.000000,   0.000000 [a0]

Properties computed using the B3LYP density matrix

 Multipole Moments:

 ------------------------------------------------------------------------------------
     Multipole            Electronic (a.u.)      Nuclear  (a.u.)        Total (a.u.)
 ------------------------------------------------------------------------------------

 L = 1.  Multiply by 2.5417464519 to convert [e a0] to [Debye]
 Dipole X            :          0.0000000            0.0000000            0.0000000
 Dipole Y            :          0.0000000            0.0000000            0.0000000
 Dipole Z            :          0.2983866            0.6289121            0.9272987
 Magnitude           :                                                    0.9272987

 L = 2.  Multiply by 1.3450342976 to convert [e a0^2] to [Debye ang]
 Quadrupole XX       :         -7.7269009            0.0000000           -7.7269009
 Quadrupole XY       :          0.0000000            0.0000000            0.0000000
 Quadrupole XZ       :          0.0000000            0.0000000            0.0000000
 Quadrupole YY       :         -7.7269009            0.0000000           -7.7269009
 Quadrupole YZ       :          0.0000000            0.0000000            0.0000000
 Quadrupole ZZ       :         -9.4326467            1.6751935           -7.7574532
 Traceless XX        :          0.5685819           -0.5583978            0.0101841
 Traceless YY        :          0.5685819           -0.5583978            0.0101841
 Traceless ZZ        :         -1.1371638            1.1167957           -0.0203682

 ------------------------------------------------------------------------------------
  ==> Computing MBIS Charges <==

  Electron Count from Grid (Expected Number):  8.00000 ( 8.00000)
  Difference:  0.00000

  MBIS Charges: (a.u.)
   Center  Symbol  Z      Pop.       Charge
      1       C    6    7.200675   -1.200675
      2       H    1    0.799325    0.200675

  MBIS Dipoles: [e a0]
   Center  Symbol  Z        X           Y           Z
      1       C    6   -0.000000    0.000000    0.519168
      2       H    1    0.000000   -0.000000    0.025888

  MBIS Quadrupoles: [e a0^2]
   Center  Symbol  Z      XX        XY        XZ        YY        YZ        ZZ
      1       C    6   -7.4719    0.0000    0.0000   -7.4719    0.0000   -7.7683
      2       H    1   -0.2550   -0.0000   -0.0000   -0.2550    0.0000   -0.2531

  MBIS Octupoles: [e a0^3]
   Center  Symbol  Z      XXX       XXY       XXZ       XYY       XYZ       XZZ       YYY       YYZ       YZZ       ZZZ
      1       C    6   -0.0000    0.0000    1.2827   -0.0000   -0.0000   -0.0000    0.0000    1.2827   -0.0000    3.3072
      2       H    1    0.0000   -0.0000    0.0063   -0.0000   -0.0000   -0.0000   -0.0000    0.0063    0.0000    0.0130

  MBIS Radial Moments:
   Center  Symbol  Z      [a0^2]      [a0^3]      [a0^4]
      1       C    6   22.712173   64.034772   210.569052
      2       H    1    0.763075    1.056532    1.759866

  MBIS Valence Widths: [a0]
   Center  Symbol  Z     Width
      1       C    6    0.592366
      2       H    1    0.285457

*** tstop() called on Mac.lan at Sun Aug 10 17:35:13 2025
Module time:
	user time   =       3.89 seconds =       0.06 minutes
	system time =       2.18 seconds =       0.04 minutes
	total time  =          0 seconds =       0.00 minutes
Total time:
	user time   =      14.12 seconds =       0.24 minutes
	system time =       3.02 seconds =       0.05 minutes
	total time  =          1 seconds =       0.02 minutes

    Psi4 stopped on: Sunday, 10 August 2025 05:35PM
    Psi4 wall time for execution: 0:00:01.67

*** Psi4 exiting successfully. Buy a developer a beer!
