                               Psi4 1.9.1 release

  ==> Input File <==

--------------------------------------------------------------------------
molecule {
-1 2
H           0.000000           0.000000           0.000000
H           0.000000           0.000000           1.745542
}

set {
basis              cc-pvtz
reference          uks
maxiter            500
DAMPING_PERCENTAGE 1
E_CONVERGENCE      1.0E-8
D_CONVERGENCE      1.0E-8
DIIS_MAX_VECS      400
MBIS_MAXITER       8000
guess              read
}

E, wfn = energy('b3lyp', restart_file='last_wfn', return_wfn=True)
properties('b3lyp','MBIS_CHARGES', wfn=wfn)
wfn.to_file('last_wfn')
--------------------------------------------------------------------------

    Molecular point group: d2h
  Charge       = -1
  Multiplicity = 2
  Basis Set: CC-PVTZ
    Blend: CC-PVTZ
  Basis Set: (CC-PVTZ AUX)
    Blend: CC-PVTZ-JKFIT
  @DF-UKS Final Energy:    -1.05577857790821
    Total Energy =                         -1.0557785779082134
 Dipole X            :          0.0000000            0.0000000            0.0000000
 Dipole Y            :          0.0000000            0.0000000            0.0000000
 Dipole Z            :          0.0000000            0.0000000            0.0000000
 Magnitude           :                                                    0.0000000
    Molecular point group: d2h

    Geometry (in Angstrom), charge = -1, multiplicity = 2:

       Center              X                  Y                   Z               Mass
    ------------   -----------------  -----------------  -----------------  -----------------
         H            0.000000000000     0.000000000000    -0.872771000000     1.007825032230
         H            0.000000000000     0.000000000000     0.872771000000     1.007825032230

  Charge       = -1
  Multiplicity = 2
  Basis Set: CC-PVTZ
    Blend: CC-PVTZ
  Basis Set: (CC-PVTZ AUX)
    Blend: CC-PVTZ-JKFIT

    Orbital Energies [Eh]
    ---------------------

    Alpha Occupied:

       1Ag    -0.029393     1B1u    0.086351

    Alpha Virtual:

       2Ag     0.509878     2B1u    0.526506     1B2u    0.814090
       1B3u    0.814090     3Ag     0.854558     1B3g    0.994786
       1B2g    0.994786     3B1u    1.337693     4Ag     2.446191
       4B1u    2.636456     5Ag     3.282676     2B3u    3.349054
       2B2u    3.349054     6Ag     3.483087     1B1g    3.483090
       5B1u    3.520356     1Au     3.520359     2B3g    3.647024
       2B2g    3.647024     6B1u    3.816724     3B3u    3.868420
       3B2u    3.868420     3B3g    4.004870     3B2g    4.004870
       7Ag     4.077148     7B1u    4.669332

    Beta Occupied:

       1Ag     0.029862

    Beta Virtual:

       1B1u    0.201673     2Ag     0.538720     2B1u    0.575200
       1B2u    0.843720     1B3u    0.843720     3Ag     0.890373
       1B3g    1.037377     1B2g    1.037377     3B1u    1.381283
       4Ag     2.523791     4B1u    2.712348     5Ag     3.326092
       2B3u    3.397340     2B2u    3.397340     6Ag     3.533081
       1B1g    3.533084     5B1u    3.570864     1Au     3.570866
       2B3g    3.691529     2B2g    3.691529     6B1u    3.868374
       3B3u    3.933606     3B2u    3.933606     3B3g    4.075215
       3B2g    4.075215     7Ag     4.140109     7B1u    4.727591

    Final Occupation by Irrep:
             Ag   B1g   B2g   B3g    Au   B1u   B2u   B3u
    DOCC [     1,    0,    0,    0,    0,    0,    0,    0 ]
    SOCC [     0,    0,    0,    0,    0,    1,    0,    0 ]
    NA   [     1,    0,    0,    0,    0,    1,    0,    0 ]
    NB   [     1,    0,    0,    0,    0,    0,    0,    0 ]

  @DF-UKS Final Energy:    -1.05577857764304

   => Energetics <=

    Nuclear Repulsion Energy =              0.3031592540712282
    One-Electron Energy =                  -2.3230821853926216
    Two-Electron Energy =                   1.6265487889782910
    DFT Exchange-Correlation Energy =      -0.6624044352999414
    Empirical Dispersion Energy =           0.0000000000000000
    VV10 Nonlocal Energy =                  0.0000000000000000
    Total Energy =                         -1.0557785776430439

  UHF NO Occupations:
  HONO-1 :    1 Ag 1.9968829
  HONO-0 :    1B1u 1.0000000
  LUNO+0 :    2 Ag 0.0031171
  LUNO+1 :    3 Ag 0.0000000
  LUNO+2 :    4 Ag 0.0000000
  LUNO+3 :    2B1u 0.0000000

Computation Completed

Properties will be evaluated at   0.000000,   0.000000,   0.000000 [a0]

Properties computed using the B3LYP density matrix

 Multipole Moments:

 ------------------------------------------------------------------------------------
     Multipole            Electronic (a.u.)      Nuclear  (a.u.)        Total (a.u.)
 ------------------------------------------------------------------------------------

 L = 1.  Multiply by 2.5417464519 to convert [e a0] to [Debye]
 Dipole X            :          0.0000000            0.0000000            0.0000000
 Dipole Y            :          0.0000000            0.0000000            0.0000000
 Dipole Z            :          0.0000000            0.0000000            0.0000000
 Magnitude           :                                                    0.0000000

 L = 2.  Multiply by 1.3450342976 to convert [e a0^2] to [Debye ang]
 Quadrupole XX       :         -4.4032450            0.0000000           -4.4032450
 Quadrupole XY       :          0.0000000            0.0000000            0.0000000
 Quadrupole XZ       :          0.0000000            0.0000000            0.0000000
 Quadrupole YY       :         -4.4032450            0.0000000           -4.4032450
 Quadrupole YZ       :          0.0000000            0.0000000            0.0000000
 Quadrupole ZZ       :        -13.4552419            5.4403688           -8.0148730
 Traceless XX        :          3.0173323           -1.8134563            1.2038760
 Traceless YY        :          3.0173323           -1.8134563            1.2038760
 Traceless ZZ        :         -6.0346646            3.6269126           -2.4077520

 ------------------------------------------------------------------------------------
  ==> Computing MBIS Charges <==

  Electron Count from Grid (Expected Number):  3.00000 ( 3.00000)
  Difference: -0.00000

  MBIS Charges: (a.u.)
   Center  Symbol  Z      Pop.       Charge
      1       H    1    1.500000   -0.500000
      2       H    1    1.500000   -0.500000

  MBIS Dipoles: [e a0]
   Center  Symbol  Z        X           Y           Z
      1       H    1    0.000000   -0.000000    0.108568
      2       H    1   -0.000000    0.000000   -0.108568

  MBIS Quadrupoles: [e a0^2]
   Center  Symbol  Z      XX        XY        XZ        YY        YZ        ZZ
      1       H    1   -2.2016    0.0000    0.0000   -2.2016    0.0000   -2.2892
      2       H    1   -2.2016    0.0000   -0.0000   -2.2016   -0.0000   -2.2892

  MBIS Octupoles: [e a0^3]
   Center  Symbol  Z      XXX       XXY       XXZ       XYY       XYZ       XZZ       YYY       YYZ       YZZ       ZZZ
      1       H    1   -0.0000   -0.0000    0.1665    0.0000    0.0000   -0.0000   -0.0000    0.1665   -0.0000    0.2919
      2       H    1    0.0000   -0.0000   -0.1665    0.0000   -0.0000   -0.0000   -0.0000   -0.1665   -0.0000   -0.2919

  MBIS Radial Moments:
   Center  Symbol  Z      [a0^2]      [a0^3]      [a0^4]
      1       H    1    6.692468   19.930426   69.005528
      2       H    1    6.692468   19.930426   69.005528

  MBIS Valence Widths: [a0]
   Center  Symbol  Z     Width
      1       H    1    0.610503
      2       H    1    0.610503

*** tstop() called on Mac.lan at Sun Aug 10 17:26:40 2025
Module time:
	user time   =       0.87 seconds =       0.01 minutes
	system time =       0.94 seconds =       0.02 minutes
	total time  =          0 seconds =       0.00 minutes
Total time:
	user time   =       1.67 seconds =       0.03 minutes
	system time =       3.10 seconds =       0.05 minutes
	total time  =          1 seconds =       0.02 minutes

    Psi4 stopped on: Sunday, 10 August 2025 05:26PM
    Psi4 wall time for execution: 0:00:00.68

*** Psi4 exiting successfully. Buy a developer a beer!
