                               Psi4 1.9.1 release

  ==> Input File <==

--------------------------------------------------------------------------
molecule {
-1 2
C           0.000000           0.000000           0.000000
C           0.000000           0.000000           0.675697
}

set {
basis              cc-pvtz
reference          uks
maxiter            500
DAMPING_PERCENTAGE 1
E_CONVERGENCE      1.0E-8
D_CONVERGENCE      1.0E-8
DIIS_MAX_VECS      400
MBIS_MAXITER       8000
guess              read
}

E, wfn = energy('b3lyp', restart_file='last_wfn', return_wfn=True)
properties('b3lyp','MBIS_CHARGES', wfn=wfn)
wfn.to_file('last_wfn')
--------------------------------------------------------------------------

    Molecular point group: d2h
  Charge       = -1
  Multiplicity = 2
  Basis Set: CC-PVTZ
    Blend: CC-PVTZ
  Basis Set: (CC-PVTZ AUX)
    Blend: CC-PVTZ-JKFIT
  @DF-UKS Final Energy:   -74.24695294760043
    Total Energy =                        -74.2469529476004340
 Dipole X            :          0.0000000            0.0000000            0.0000000
 Dipole Y            :          0.0000000            0.0000000            0.0000000
 Dipole Z            :          0.0000000            0.0000000            0.0000000
 Magnitude           :                                                    0.0000000
    Molecular point group: d2h

    Geometry (in Angstrom), charge = -1, multiplicity = 2:

       Center              X                  Y                   Z               Mass
    ------------   -----------------  -----------------  -----------------  -----------------
         C            0.000000000000     0.000000000000    -0.337848500000    12.000000000000
         C            0.000000000000     0.000000000000     0.337848500000    12.000000000000

  Charge       = -1
  Multiplicity = 2
  Basis Set: CC-PVTZ
    Blend: CC-PVTZ
  Basis Set: (CC-PVTZ AUX)
    Blend: CC-PVTZ-JKFIT

    Orbital Energies [Eh]
    ---------------------

    Alpha Occupied:

       1Ag   -10.065160     1B1u   -9.830252     2Ag    -0.407048
       1B3u   -0.187223     1B2u   -0.187223     2B1u    0.021226
       3Ag     0.027688

    Alpha Virtual:

       3B1u    0.406743     1B3g    0.426195     1B2g    0.426195
       2B3u    0.465565     2B2u    0.465565     4Ag     0.477361
       5Ag     0.686296     2B3g    0.820627     2B2g    0.820627
       1B1g    0.907833     6Ag     0.907833     4B1u    0.957131
       3B3u    1.244261     3B2u    1.244261     1Au     1.270282
       5B1u    1.270282     6B1u    1.288094     7Ag     1.336699
       3B3g    1.539949     3B2g    1.539949     4B3u    1.953402
       4B2u    1.953402     8Ag     2.451076     7B1u    2.763946
       5B3u    2.798039     5B2u    2.798039     2B1g    2.839057
       9Ag     2.839057     4B3g    2.911699     4B2g    2.911699
       8B1u    3.055652     6B3u    3.101876     6B2u    3.101876
       2Au     3.164086     9B1u    3.164086    10Ag     3.420522
       3B1g    3.583333    11Ag     3.583333     5B2g    3.592815
       5B3g    3.592815     6B3g    3.631566     6B2g    3.631566
      12Ag     3.910631    10B1u    4.457958     7B3u    5.097036
       7B2u    5.097036     3Au     5.178505    11B1u    5.178506
      13Ag     5.330144     7B3g    6.460220     7B2g    6.460220
      12B1u    7.815121    13B1u   21.186331

    Beta Occupied:

       1Ag   -10.039755     1B1u   -9.811050     2Ag    -0.364324
       1B3u   -0.170209     1B2u   -0.170209     2B1u    0.073417

    Beta Virtual:

       3Ag     0.190174     3B1u    0.419556     1B3g    0.432477
       1B2g    0.432477     2B3u    0.471994     2B2u    0.471994
       4Ag     0.506960     5Ag     0.707655     2B3g    0.834418
       2B2g    0.834418     1B1g    0.908059     6Ag     0.908059
       4B1u    0.977026     3B3u    1.263081     3B2u    1.263081
       1Au     1.275071     5B1u    1.275071     6B1u    1.308068
       7Ag     1.378966     3B3g    1.552712     3B2g    1.552712
       4B3u    1.968126     4B2u    1.968126     8Ag     2.484733
       5B3u    2.797217     5B2u    2.797217     7B1u    2.821138
       2B1g    2.849194     9Ag     2.849195     4B3g    2.922743
       4B2g    2.922743     8B1u    3.087276     6B3u    3.148777
       6B2u    3.148777     2Au     3.178449     9B1u    3.178449
      10Ag     3.459155     5B2g    3.593804     5B3g    3.593804
       3B1g    3.599156    11Ag     3.599156     6B3g    3.664346
       6B2g    3.664346    12Ag     3.941789    10B1u    4.486793
       7B3u    5.126986     7B2u    5.126986     3Au     5.185377
      11B1u    5.185378    13Ag     5.383678     7B3g    6.483603
       7B2g    6.483603    12B1u    7.875344    13B1u   21.207794

    Final Occupation by Irrep:
             Ag   B1g   B2g   B3g    Au   B1u   B2u   B3u
    DOCC [     2,    0,    0,    0,    0,    2,    1,    1 ]
    SOCC [     1,    0,    0,    0,    0,    0,    0,    0 ]
    NA   [     3,    0,    0,    0,    0,    2,    1,    1 ]
    NB   [     2,    0,    0,    0,    0,    2,    1,    1 ]

  @DF-UKS Final Energy:   -74.24695294776265

   => Energetics <=

    Nuclear Repulsion Energy =             28.1936719922095236
    One-Electron Energy =                -156.9698934659189717
    Two-Electron Energy =                  63.9893366312971708
    DFT Exchange-Correlation Energy =      -9.4600681053503681
    Empirical Dispersion Energy =           0.0000000000000000
    VV10 Nonlocal Energy =                  0.0000000000000000
    Total Energy =                        -74.2469529477626651

  UHF NO Occupations:
  HONO-2 :    2 Ag 1.9994821
  HONO-1 :    2B1u 1.9979311
  HONO-0 :    3 Ag 1.0000000
  LUNO+0 :    3B1u 0.0020689
  LUNO+1 :    4 Ag 0.0005179
  LUNO+2 :    2B2u 0.0001032
  LUNO+3 :    2B3u 0.0001032

Computation Completed

Properties will be evaluated at   0.000000,   0.000000,   0.000000 [a0]

Properties computed using the B3LYP density matrix

 Multipole Moments:

 ------------------------------------------------------------------------------------
     Multipole            Electronic (a.u.)      Nuclear  (a.u.)        Total (a.u.)
 ------------------------------------------------------------------------------------

 L = 1.  Multiply by 2.5417464519 to convert [e a0] to [Debye]
 Dipole X            :          0.0000000            0.0000000            0.0000000
 Dipole Y            :          0.0000000            0.0000000            0.0000000
 Dipole Z            :          0.0000000            0.0000000            0.0000000
 Magnitude           :                                                    0.0000000

 L = 2.  Multiply by 1.3450342976 to convert [e a0^2] to [Debye ang]
 Quadrupole XX       :         -9.0786769            0.0000000           -9.0786769
 Quadrupole XY       :          0.0000000            0.0000000            0.0000000
 Quadrupole XZ       :          0.0000000            0.0000000            0.0000000
 Quadrupole YY       :         -9.0786769            0.0000000           -9.0786769
 Quadrupole YZ       :          0.0000000            0.0000000            0.0000000
 Quadrupole ZZ       :        -18.5278515            4.8912850          -13.6365665
 Traceless XX        :          3.1497249           -1.6304283            1.5192965
 Traceless YY        :          3.1497249           -1.6304283            1.5192965
 Traceless ZZ        :         -6.2994497            3.2608567           -3.0385930

 ------------------------------------------------------------------------------------
  ==> Computing MBIS Charges <==

  Electron Count from Grid (Expected Number): 13.00000 (13.00000)
  Difference:  0.00000

  MBIS Charges: (a.u.)
   Center  Symbol  Z      Pop.       Charge
      1       C    6    6.500001   -0.500001
      2       C    6    6.500001   -0.500001

  MBIS Dipoles: [e a0]
   Center  Symbol  Z        X           Y           Z
      1       C    6   -0.000000   -0.000000    0.219302
      2       C    6    0.000000   -0.000000   -0.219302

  MBIS Quadrupoles: [e a0^2]
   Center  Symbol  Z      XX        XY        XZ        YY        YZ        ZZ
      1       C    6   -4.5393    0.0000    0.0000   -4.5393   -0.0000   -6.3345
      2       C    6   -4.5393    0.0000   -0.0000   -4.5393    0.0000   -6.3345

  MBIS Octupoles: [e a0^3]
   Center  Symbol  Z      XXX       XXY       XXZ       XYY       XYZ       XZZ       YYY       YYZ       YZZ       ZZZ
      1       C    6   -0.0000   -0.0000    0.7945   -0.0000    0.0000   -0.0000    0.0000    0.7945   -0.0000    3.0694
      2       C    6   -0.0000   -0.0000   -0.7945   -0.0000   -0.0000   -0.0000    0.0000   -0.7945    0.0000   -3.0694

  MBIS Radial Moments:
   Center  Symbol  Z      [a0^2]      [a0^3]      [a0^4]
      1       C    6   15.413133   40.692074   131.323115
      2       C    6   15.413133   40.692074   131.323115

  MBIS Valence Widths: [a0]
   Center  Symbol  Z     Width
      1       C    6    0.510476
      2       C    6    0.510476

*** tstop() called on Mac.lan at Sun Aug 10 17:30:11 2025
Module time:
	user time   =       3.86 seconds =       0.06 minutes
	system time =       2.36 seconds =       0.04 minutes
	total time  =          0 seconds =       0.00 minutes
Total time:
	user time   =      17.66 seconds =       0.29 minutes
	system time =       4.68 seconds =       0.08 minutes
	total time  =          2 seconds =       0.03 minutes

    Psi4 stopped on: Sunday, 10 August 2025 05:30PM
    Psi4 wall time for execution: 0:00:02.17

*** Psi4 exiting successfully. Buy a developer a beer!
