                               Psi4 1.9.1 release

  ==> Input File <==

--------------------------------------------------------------------------
molecule {
-1 2
N           0.000000           0.000000           0.000000
N           0.000000           0.000000           0.667023
}

set {
basis              cc-pvtz
reference          uks
maxiter            500
DAMPING_PERCENTAGE 1
E_CONVERGENCE      1.0E-8
D_CONVERGENCE      1.0E-8
DIIS_MAX_VECS      400
MBIS_MAXITER       8000
guess              read
}

E, wfn = energy('b3lyp', restart_file='last_wfn', return_wfn=True)
properties('b3lyp','MBIS_CHARGES', wfn=wfn)
wfn.to_file('last_wfn')
--------------------------------------------------------------------------

    Molecular point group: d2h
  Charge       = -1
  Multiplicity = 2
  Basis Set: CC-PVTZ
    Blend: CC-PVTZ
  Basis Set: (CC-PVTZ AUX)
    Blend: CC-PVTZ-JKFIT
  @DF-UKS Final Energy:  -107.61449172081988
    Total Energy =                       -107.6144917208198848
 Dipole X            :          0.0000000            0.0000000            0.0000000
 Dipole Y            :          0.0000000            0.0000000            0.0000000
 Dipole Z            :          0.0000000           -0.0000000           -0.0000000
 Magnitude           :                                                    0.0000000
    Molecular point group: d2h

    Geometry (in Angstrom), charge = -1, multiplicity = 2:

       Center              X                  Y                   Z               Mass
    ------------   -----------------  -----------------  -----------------  -----------------
         N            0.000000000000     0.000000000000    -0.333511500000    14.003074004430
         N            0.000000000000     0.000000000000     0.333511500000    14.003074004430

  Charge       = -1
  Multiplicity = 2
  Basis Set: CC-PVTZ
    Blend: CC-PVTZ
  Basis Set: (CC-PVTZ AUX)
    Blend: CC-PVTZ-JKFIT

    Orbital Energies [Eh]
    ---------------------

    Alpha Occupied:

       1Ag   -14.059069     1B1u  -13.934630     2Ag    -0.879916
       1B3u   -0.365303     1B2u   -0.364990     3Ag    -0.121722
       2B1u   -0.093244     1B2g    0.426128

    Alpha Virtual:

       1B3g    0.499258     3B1u    0.551251     2B3u    0.585649
       2B2u    0.587941     4Ag     0.626790     5Ag     0.850629
       2B2g    0.947165     2B3g    0.964904     1B1g    1.162300
       6Ag     1.163196     4B1u    1.171206     3B3u    1.684501
       3B2u    1.687080     1Au     1.718328     5B1u    1.720556
       6B1u    1.773305     7Ag     1.809246     3B2g    2.035441
       3B3g    2.042557     4B2u    2.776607     4B3u    2.782783
       8Ag     3.526764     7B1u    3.621437     5B3u    3.802982
       5B2u    3.803007     4B2g    3.875847     4B3g    3.878228
       2B1g    3.953863     9Ag     3.954365     8B1u    4.165173
       6B3u    4.423961     6B2u    4.425993     2Au     4.575211
       9B1u    4.576397    10Ag     4.647657     5B2g    4.856540
       5B3g    4.856591     6B3g    4.916044     6B2g    4.916173
       3B1g    4.936115    11Ag     4.936719    12Ag     5.129704
      10B1u    5.774742     7B2u    6.449526     7B3u    6.452211
       3Au     6.780360    11B1u    6.780947     7B2g    8.596670
       7B3g    8.598103    13Ag     8.914699    12B1u    9.237393
      13B1u   29.451914

    Beta Occupied:

       1Ag   -14.056804     1B1u  -13.932227     2Ag    -0.875757
       1B2u   -0.362515     1B3u   -0.343015     3Ag    -0.109041
       2B1u   -0.072451

    Beta Virtual:

       1B3g    0.509692     1B2g    0.530422     3B1u    0.561402
       2B2u    0.592298     2B3u    0.612749     4Ag     0.637811
       5Ag     0.858603     2B3g    0.971938     2B2g    0.990572
       1B1g    1.173755     6Ag     1.174152     4B1u    1.195775
       3B2u    1.689895     3B3u    1.712733     5B1u    1.746959
       1Au     1.748399     6B1u    1.784011     7Ag     1.812185
       3B3g    2.046993     3B2g    2.065015     4B2u    2.778878
       4B3u    2.797378     8Ag     3.533029     7B1u    3.629713
       5B2u    3.811924     5B3u    3.811929     4B3g    3.882356
       4B2g    3.902078     2B1g    3.961189     9Ag     3.961393
       8B1u    4.176022     6B2u    4.426859     6B3u    4.443564
       2Au     4.596022     9B1u    4.596033    10Ag     4.654744
       5B3g    4.874365     5B2g    4.874471     6B3g    4.917374
       6B2g    4.935683     3B1g    4.950966    11Ag     4.951375
      12Ag     5.133710    10B1u    5.781993     7B2u    6.450255
       7B3u    6.466857     3Au     6.793536    11B1u    6.793596
       7B3g    8.600093     7B2g    8.616346    13Ag     8.922472
      12B1u    9.240033    13B1u   29.455909

    Final Occupation by Irrep:
             Ag   B1g   B2g   B3g    Au   B1u   B2u   B3u
    DOCC [     3,    0,    0,    0,    0,    2,    1,    1 ]
    SOCC [     0,    0,    1,    0,    0,    0,    0,    0 ]
    NA   [     3,    0,    1,    0,    0,    2,    1,    1 ]
    NB   [     3,    0,    0,    0,    0,    2,    1,    1 ]

  @DF-UKS Final Energy:  -107.61449172066172

   => Energetics <=

    Nuclear Repulsion Energy =             38.8737469664914101
    One-Electron Energy =                -225.1851551525328432
    Two-Electron Energy =                  90.7493139829079070
    DFT Exchange-Correlation Energy =     -12.0523975175281919
    Empirical Dispersion Energy =           0.0000000000000000
    VV10 Nonlocal Energy =                  0.0000000000000000
    Total Energy =                       -107.6144917206617180

  UHF NO Occupations:
  HONO-2 :    3 Ag 1.9999241
  HONO-1 :    2B1u 1.9998750
  HONO-0 :    1B2g 1.0000000
  LUNO+0 :    3B1u 0.0001250
  LUNO+1 :    4 Ag 0.0000759
  LUNO+2 :    2B3u 0.0000739
  LUNO+3 :    2B2u 0.0000031

Computation Completed

Properties will be evaluated at   0.000000,   0.000000,   0.000000 [a0]

Properties computed using the B3LYP density matrix

 Multipole Moments:

 ------------------------------------------------------------------------------------
     Multipole            Electronic (a.u.)      Nuclear  (a.u.)        Total (a.u.)
 ------------------------------------------------------------------------------------

 L = 1.  Multiply by 2.5417464519 to convert [e a0] to [Debye]
 Dipole X            :          0.0000000            0.0000000            0.0000000
 Dipole Y            :          0.0000000            0.0000000            0.0000000
 Dipole Z            :          0.0000000           -0.0000000           -0.0000000
 Magnitude           :                                                    0.0000000

 L = 2.  Multiply by 1.3450342976 to convert [e a0^2] to [Debye ang]
 Quadrupole XX       :        -10.4021720            0.0000000          -10.4021720
 Quadrupole XY       :          0.0000000            0.0000000            0.0000000
 Quadrupole XZ       :          0.0000000            0.0000000            0.0000000
 Quadrupole YY       :         -7.9107488            0.0000000           -7.9107488
 Quadrupole YZ       :          0.0000000            0.0000000            0.0000000
 Quadrupole ZZ       :        -18.3990702            5.5609296          -12.8381406
 Traceless XX        :          1.8351583           -1.8536432           -0.0184849
 Traceless YY        :          4.3265815           -1.8536432            2.4729383
 Traceless ZZ        :         -6.1617398            3.7072864           -2.4544534

 ------------------------------------------------------------------------------------
  ==> Computing MBIS Charges <==

  Electron Count from Grid (Expected Number): 15.00000 (15.00000)
  Difference: -0.00000

  MBIS Charges: (a.u.)
   Center  Symbol  Z      Pop.       Charge
      1       N    7    7.499999   -0.499999
      2       N    7    7.499999   -0.499999

  MBIS Dipoles: [e a0]
   Center  Symbol  Z        X           Y           Z
      1       N    7    0.000000   -0.000000    0.324326
      2       N    7    0.000000   -0.000000   -0.324326

  MBIS Quadrupoles: [e a0^2]
   Center  Symbol  Z      XX        XY        XZ        YY        YZ        ZZ
      1       N    7   -5.2011    0.0000   -0.0000   -3.9554   -0.0000   -5.8117
      2       N    7   -5.2011   -0.0000    0.0000   -3.9554    0.0000   -5.8117

  MBIS Octupoles: [e a0^3]
   Center  Symbol  Z      XXX       XXY       XXZ       XYY       XYZ       XZZ       YYY       YYZ       YZZ       ZZZ
      1       N    7    0.0000    0.0000    1.4434   -0.0000   -0.0000    0.0000    0.0000    0.6276    0.0000    1.3095
      2       N    7    0.0000   -0.0000   -1.4434   -0.0000    0.0000    0.0000    0.0000   -0.6276    0.0000   -1.3095

  MBIS Radial Moments:
   Center  Symbol  Z      [a0^2]      [a0^3]      [a0^4]
      1       N    7   14.968117   36.023986   104.989160
      2       N    7   14.968117   36.023986   104.989160

  MBIS Valence Widths: [a0]
   Center  Symbol  Z     Width
      1       N    7    0.456636
      2       N    7    0.456636

*** tstop() called on Mac.lan at Sun Aug 10 17:32:54 2025
Module time:
	user time   =       3.63 seconds =       0.06 minutes
	system time =       2.61 seconds =       0.04 minutes
	total time  =          0 seconds =       0.00 minutes
Total time:
	user time   =      16.72 seconds =       0.28 minutes
	system time =       4.91 seconds =       0.08 minutes
	total time  =          2 seconds =       0.03 minutes

    Psi4 stopped on: Sunday, 10 August 2025 05:32PM
    Psi4 wall time for execution: 0:00:02.11

*** Psi4 exiting successfully. Buy a developer a beer!
