                               Psi4 1.9.1 release

  ==> Input File <==

--------------------------------------------------------------------------
molecule {
-1 1
N           0.000000           0.000000           0.000000
C           0.000000           0.000000           0.656940
}

set {
basis              cc-pvtz
reference          uks
maxiter            500
DAMPING_PERCENTAGE 1
E_CONVERGENCE      1.0E-8
D_CONVERGENCE      1.0E-8
DIIS_MAX_VECS      400
MBIS_MAXITER       8000
guess              read
}

E, wfn = energy('b3lyp', restart_file='last_wfn', return_wfn=True)
properties('b3lyp','MBIS_CHARGES', wfn=wfn)
wfn.to_file('last_wfn')
--------------------------------------------------------------------------

    Molecular point group: c2v
  Charge       = -1
  Multiplicity = 1
  Basis Set: CC-PVTZ
    Blend: CC-PVTZ
  Basis Set: (CC-PVTZ AUX)
    Blend: CC-PVTZ-JKFIT
  @DF-UKS Final Energy:   -90.91627245362375
    Total Energy =                        -90.9162724536237477
 Dipole X            :          0.0000000            0.0000000            0.0000000
 Dipole Y            :          0.0000000            0.0000000            0.0000000
 Dipole Z            :         -0.5063988            0.0008806           -0.5055182
 Magnitude           :                                                    0.5055182
    Molecular point group: c2v

    Geometry (in Angstrom), charge = -1, multiplicity = 1:

       Center              X                  Y                   Z               Mass
    ------------   -----------------  -----------------  -----------------  -----------------
         N            0.000000000000     0.000000000000    -0.303167233176    14.003074004430
         C            0.000000000000     0.000000000000     0.353772766824    12.000000000000

  Charge       = -1
  Multiplicity = 1
  Basis Set: CC-PVTZ
    Blend: CC-PVTZ
  Basis Set: (CC-PVTZ AUX)
    Blend: CC-PVTZ-JKFIT

    Orbital Energies [Eh]
    ---------------------

    Alpha Occupied:

       1A1   -13.944670     2A1    -9.827482     3A1    -0.560371
       1B1    -0.232976     1B2    -0.232976     4A1    -0.000549
       5A1     0.048779

    Alpha Virtual:

       2B2     0.419907     2B1     0.419907     6A1     0.433436
       7A1     0.543148     3B1     0.595686     3B2     0.595686
       8A1     0.764189     4B2     0.923942     4B1     0.923942
       1A2     0.960212     9A1     0.960212    10A1     1.201702
       5B1     1.414350     5B2     1.414350    11A1     1.503704
       2A2     1.622661    12A1     1.622661     6B2     1.743803
       6B1     1.743803    13A1     1.874463     7B2     2.408225
       7B1     2.408225    14A1     2.610722     8B2     2.990911
       8B1     2.990911    15A1     3.087426     3A2     3.206582
      16A1     3.206582     9B2     3.352927     9B1     3.352927
      17A1     3.429347     4A2     3.449091    18A1     3.449091
      10B2     3.831614    10B1     3.831614    19A1     4.136067
      11B2     4.452909    11B1     4.452909    12B2     4.616403
      12B1     4.616403     5A2     4.871339    20A1     4.871340
      21A1     5.263908    13B2     5.920380    13B1     5.920380
       6A2     6.216183    22A1     6.216184    23A1     6.429244
      14B2     7.406705    14B1     7.406705    24A1     7.516812
      25A1     8.411950    26A1    20.659508

    Beta Occupied:

       1A1   -13.944670     2A1    -9.827482     3A1    -0.560371
       1B1    -0.232976     1B2    -0.232976     4A1    -0.000549
       5A1     0.048779

    Beta Virtual:

       2B2     0.419907     2B1     0.419907     6A1     0.433436
       7A1     0.543148     3B1     0.595686     3B2     0.595686
       8A1     0.764189     4B2     0.923942     4B1     0.923942
       1A2     0.960212     9A1     0.960212    10A1     1.201702
       5B1     1.414350     5B2     1.414350    11A1     1.503704
       2A2     1.622661    12A1     1.622661     6B2     1.743803
       6B1     1.743803    13A1     1.874463     7B2     2.408225
       7B1     2.408225    14A1     2.610722     8B2     2.990911
       8B1     2.990911    15A1     3.087426     3A2     3.206582
      16A1     3.206582     9B2     3.352927     9B1     3.352927
      17A1     3.429347     4A2     3.449091    18A1     3.449091
      10B2     3.831614    10B1     3.831614    19A1     4.136067
      11B2     4.452909    11B1     4.452909    12B2     4.616403
      12B1     4.616403     5A2     4.871339    20A1     4.871340
      21A1     5.263908    13B2     5.920380    13B1     5.920380
       6A2     6.216183    22A1     6.216184    23A1     6.429244
      14B2     7.406705    14B1     7.406705    24A1     7.516812
      25A1     8.411950    26A1    20.659508

    Final Occupation by Irrep:
             A1    A2    B1    B2
    DOCC [     5,    0,    1,    1 ]
    SOCC [     0,    0,    0,    0 ]
    NA   [     5,    0,    1,    1 ]
    NB   [     5,    0,    1,    1 ]

  @DF-UKS Final Energy:   -90.91627245819534

   => Energetics <=

    Nuclear Repulsion Energy =             33.8317697934971235
    One-Electron Energy =                -192.2135119346215220
    Two-Electron Energy =                  78.3046718355970199
    DFT Exchange-Correlation Energy =     -10.8392021526679603
    Empirical Dispersion Energy =           0.0000000000000000
    VV10 Nonlocal Energy =                  0.0000000000000000
    Total Energy =                        -90.9162724581953370

  UHF NO Occupations:
  HONO-2 :    1 B1 2.0000000
  HONO-1 :    1 B2 2.0000000
  HONO-0 :    5 A1 2.0000000
  LUNO+0 :    6 A1 0.0000000
  LUNO+1 :    7 A1 0.0000000
  LUNO+2 :    8 A1 0.0000000
  LUNO+3 :    9 A1 0.0000000

Computation Completed

Properties will be evaluated at   0.000000,   0.000000,   0.000000 [a0]

Properties computed using the B3LYP density matrix

 Multipole Moments:

 ------------------------------------------------------------------------------------
     Multipole            Electronic (a.u.)      Nuclear  (a.u.)        Total (a.u.)
 ------------------------------------------------------------------------------------

 L = 1.  Multiply by 2.5417464519 to convert [e a0] to [Debye]
 Dipole X            :          0.0000000            0.0000000            0.0000000
 Dipole Y            :          0.0000000            0.0000000            0.0000000
 Dipole Z            :         -0.5063988            0.0008806           -0.5055182
 Magnitude           :                                                    0.5055182

 L = 2.  Multiply by 1.3450342976 to convert [e a0^2] to [Debye ang]
 Quadrupole XX       :         -8.6190513            0.0000000           -8.6190513
 Quadrupole XY       :          0.0000000            0.0000000            0.0000000
 Quadrupole XZ       :          0.0000000            0.0000000            0.0000000
 Quadrupole YY       :         -8.6190513            0.0000000           -8.6190513
 Quadrupole YZ       :          0.0000000            0.0000000            0.0000000
 Quadrupole ZZ       :        -17.6339204            4.9791486          -12.6547718
 Traceless XX        :          3.0049564           -1.6597162            1.3452402
 Traceless YY        :          3.0049564           -1.6597162            1.3452402
 Traceless ZZ        :         -6.0099127            3.3194324           -2.6904803

 ------------------------------------------------------------------------------------
  ==> Computing MBIS Charges <==

  Electron Count from Grid (Expected Number): 14.00000 (14.00000)
  Difference: -0.00000

  MBIS Charges: (a.u.)
   Center  Symbol  Z      Pop.       Charge
      1       N    7    7.326975   -0.326975
      2       C    6    6.673025   -0.673025

  MBIS Dipoles: [e a0]
   Center  Symbol  Z        X           Y           Z
      1       N    7   -0.000000    0.000000    0.125749
      2       C    6   -0.000000    0.000000   -0.368652

  MBIS Quadrupoles: [e a0^2]
   Center  Symbol  Z      XX        XY        XZ        YY        YZ        ZZ
      1       N    7   -3.4934    0.0000    0.0000   -3.4934   -0.0000   -4.4895
      2       C    6   -5.1256    0.0000    0.0000   -5.1256    0.0000   -7.1202

  MBIS Octupoles: [e a0^3]
   Center  Symbol  Z      XXX       XXY       XXZ       XYY       XYZ       XZZ       YYY       YYZ       YZZ       ZZZ
      1       N    7   -0.0000   -0.0000    0.3446   -0.0000   -0.0000    0.0000    0.0000    0.3446    0.0000    1.3466
      2       C    6   -0.0000   -0.0000   -0.9073   -0.0000    0.0000    0.0000    0.0000   -0.9073    0.0000   -2.0625

  MBIS Radial Moments:
   Center  Symbol  Z      [a0^2]      [a0^3]      [a0^4]
      1       N    7   11.476268   23.449814   58.052565
      2       C    6   17.371491   46.937516   150.505355

  MBIS Valence Widths: [a0]
   Center  Symbol  Z     Width
      1       N    7    0.406976
      2       C    6    0.538235

*** tstop() called on Mac.lan at Sun Aug 10 17:39:45 2025
Module time:
	user time   =       4.93 seconds =       0.08 minutes
	system time =       2.69 seconds =       0.04 minutes
	total time  =          1 seconds =       0.02 minutes
Total time:
	user time   =      20.03 seconds =       0.33 minutes
	system time =       4.23 seconds =       0.07 minutes
	total time  =          3 seconds =       0.05 minutes

    Psi4 stopped on: Sunday, 10 August 2025 05:39PM
    Psi4 wall time for execution: 0:00:02.37

*** Psi4 exiting successfully. Buy a developer a beer!
