                               Psi4 1.9.1 release

  ==> Input File <==

--------------------------------------------------------------------------
molecule {
-1 1
O           0.000000           0.000000           0.000000
H           0.000000           0.000000           1.023578
}

set {
basis              cc-pvtz
reference          uks
maxiter            500
DAMPING_PERCENTAGE 1
E_CONVERGENCE      1.0E-8
D_CONVERGENCE      1.0E-8
DIIS_MAX_VECS      400
MBIS_MAXITER       8000
guess              read
}

E, wfn = energy('b3lyp', restart_file='last_wfn', return_wfn=True)
properties('b3lyp','MBIS_CHARGES', wfn=wfn)
wfn.to_file('last_wfn')
--------------------------------------------------------------------------

    Molecular point group: c2v
  Charge       = -1
  Multiplicity = 1
  Basis Set: CC-PVTZ
    Blend: CC-PVTZ
  Basis Set: (CC-PVTZ AUX)
    Blend: CC-PVTZ-JKFIT
  @DF-UKS Final Energy:   -75.78843353412813
    Total Energy =                        -75.7884335341281314
 Dipole X            :          0.0000000            0.0000000            0.0000000
 Dipole Y            :          0.0000000            0.0000000            0.0000000
 Dipole Z            :         -0.5326046            0.9024036            0.3697990
 Magnitude           :                                                    0.3697990
    Molecular point group: c2v

    Geometry (in Angstrom), charge = -1, multiplicity = 1:

       Center              X                  Y                   Z               Mass
    ------------   -----------------  -----------------  -----------------  -----------------
         O            0.000000000000     0.000000000000    -0.060671841831    15.994914619570
         H            0.000000000000     0.000000000000     0.962906158169     1.007825032230

  Charge       = -1
  Multiplicity = 1
  Basis Set: CC-PVTZ
    Blend: CC-PVTZ
  Basis Set: (CC-PVTZ AUX)
    Blend: CC-PVTZ-JKFIT

    Orbital Energies [Eh]
    ---------------------

    Alpha Occupied:

       1A1   -18.680485     2A1    -0.509327     3A1    -0.023986
       1B2     0.115521     1B1     0.115521

    Alpha Virtual:

       4A1     0.310706     5A1     0.689685     6A1     0.859315
       2B2     0.937752     2B1     0.937752     3B1     1.041809
       3B2     1.041809     7A1     1.276917     8A1     1.559257
       9A1     1.883494     1A2     1.883494     4B1     2.151868
       4B2     2.151868    10A1     2.313113    11A1     2.786641
      12A1     3.567722     2A2     3.567723     5B2     3.752571
       5B1     3.752571    13A1     4.017743     6B2     4.032167
       6B1     4.032167     7B1     4.424430     7B2     4.424430
      14A1     4.600444    15A1     5.133375     8B1     5.584606
       8B2     5.584606    16A1     5.773742     3A2     5.773742
       9B1     6.651194     9B2     6.651194     4A2     6.671330
      17A1     6.671331    18A1     6.709393    10B1     6.989864
      10B2     6.989864    19A1     7.369210    20A1    10.159501

    Beta Occupied:

       1A1   -18.680485     2A1    -0.509327     3A1    -0.023986
       1B2     0.115521     1B1     0.115521

    Beta Virtual:

       4A1     0.310706     5A1     0.689685     6A1     0.859315
       2B2     0.937752     2B1     0.937752     3B1     1.041809
       3B2     1.041809     7A1     1.276917     8A1     1.559257
       9A1     1.883494     1A2     1.883494     4B1     2.151868
       4B2     2.151868    10A1     2.313113    11A1     2.786641
      12A1     3.567722     2A2     3.567723     5B2     3.752571
       5B1     3.752571    13A1     4.017743     6B2     4.032167
       6B1     4.032167     7B1     4.424430     7B2     4.424430
      14A1     4.600444    15A1     5.133375     8B1     5.584606
       8B2     5.584606    16A1     5.773742     3A2     5.773742
       9B1     6.651194     9B2     6.651194     4A2     6.671330
      17A1     6.671331    18A1     6.709393    10B1     6.989864
      10B2     6.989864    19A1     7.369210    20A1    10.159501

    Final Occupation by Irrep:
             A1    A2    B1    B2
    DOCC [     3,    0,    1,    1 ]
    SOCC [     0,    0,    0,    0 ]
    NA   [     3,    0,    1,    1 ]
    NB   [     3,    0,    1,    1 ]

  @DF-UKS Final Energy:   -75.78843353410018

   => Energetics <=

    Nuclear Repulsion Energy =              4.1359014021012559
    One-Electron Energy =                -116.5361745239938784
    Two-Electron Energy =                  44.0550790616433545
    DFT Exchange-Correlation Energy =      -7.4432394738509036
    Empirical Dispersion Energy =           0.0000000000000000
    VV10 Nonlocal Energy =                  0.0000000000000000
    Total Energy =                        -75.7884335341001787

  UHF NO Occupations:
  HONO-2 :    3 A1 2.0000000
  HONO-1 :    1 B1 2.0000000
  HONO-0 :    1 B2 2.0000000
  LUNO+0 :    4 A1 0.0000000
  LUNO+1 :    5 A1 0.0000000
  LUNO+2 :    6 A1 0.0000000
  LUNO+3 :    2 B2 0.0000000

Computation Completed

Properties will be evaluated at   0.000000,   0.000000,   0.000000 [a0]

Properties computed using the B3LYP density matrix

 Multipole Moments:

 ------------------------------------------------------------------------------------
     Multipole            Electronic (a.u.)      Nuclear  (a.u.)        Total (a.u.)
 ------------------------------------------------------------------------------------

 L = 1.  Multiply by 2.5417464519 to convert [e a0] to [Debye]
 Dipole X            :          0.0000000            0.0000000            0.0000000
 Dipole Y            :          0.0000000            0.0000000            0.0000000
 Dipole Z            :         -0.5326046            0.9024036            0.3697990
 Magnitude           :                                                    0.3697990

 L = 2.  Multiply by 1.3450342976 to convert [e a0^2] to [Debye ang]
 Quadrupole XX       :         -6.3696455            0.0000000           -6.3696455
 Quadrupole XY       :          0.0000000            0.0000000            0.0000000
 Quadrupole XZ       :          0.0000000            0.0000000            0.0000000
 Quadrupole YY       :         -6.3696455            0.0000000           -6.3696455
 Quadrupole YZ       :          0.0000000            0.0000000            0.0000000
 Quadrupole ZZ       :         -8.6763444            3.4162122           -5.2601322
 Traceless XX        :          0.7688996           -1.1387374           -0.3698378
 Traceless YY        :          0.7688996           -1.1387374           -0.3698378
 Traceless ZZ        :         -1.5377992            2.2774748            0.7396756

 ------------------------------------------------------------------------------------
  ==> Computing MBIS Charges <==

  Electron Count from Grid (Expected Number): 10.00000 (10.00000)
  Difference: -0.00000

  MBIS Charges: (a.u.)
   Center  Symbol  Z      Pop.       Charge
      1       O    8    9.184861   -1.184861
      2       H    1    0.815139    0.184861

  MBIS Dipoles: [e a0]
   Center  Symbol  Z        X           Y           Z
      1       O    8    0.000000   -0.000000   -0.115521
      2       H    1    0.000000    0.000000    0.013093

  MBIS Quadrupoles: [e a0^2]
   Center  Symbol  Z      XX        XY        XZ        YY        YZ        ZZ
      1       O    8   -5.7366    0.0000   -0.0000   -5.7366   -0.0000   -5.3035
      2       H    1   -0.6331   -0.0000    0.0000   -0.6331    0.0000   -0.6273

  MBIS Octupoles: [e a0^3]
   Center  Symbol  Z      XXX       XXY       XXZ       XYY       XYZ       XZZ       YYY       YYZ       YZZ       ZZZ
      1       O    8   -0.0000   -0.0000   -0.1766    0.0000   -0.0000    0.0000   -0.0000   -0.1766   -0.0000   -0.9086
      2       H    1   -0.0000   -0.0000   -0.0003    0.0000    0.0000    0.0000   -0.0000   -0.0003    0.0000   -0.0136

  MBIS Radial Moments:
   Center  Symbol  Z      [a0^2]      [a0^3]      [a0^4]
      1       O    8   16.776666   35.513378   89.076489
      2       H    1    1.893405    4.166029   10.877448

  MBIS Valence Widths: [a0]
   Center  Symbol  Z     Width
      1       O    8    0.433025
      2       H    1    0.438354

*** tstop() called on Mac.lan at Sun Aug 10 17:38:02 2025
Module time:
	user time   =       3.28 seconds =       0.05 minutes
	system time =       1.51 seconds =       0.03 minutes
	total time  =          1 seconds =       0.02 minutes
Total time:
	user time   =      12.34 seconds =       0.21 minutes
	system time =       3.81 seconds =       0.06 minutes
	total time  =          2 seconds =       0.03 minutes

    Psi4 stopped on: Sunday, 10 August 2025 05:38PM
    Psi4 wall time for execution: 0:00:01.57

*** Psi4 exiting successfully. Buy a developer a beer!
