                               Psi4 1.9.1 release

  ==> Input File <==

--------------------------------------------------------------------------
molecule {
-1 2
H           0.000000           0.000000           0.000000
H           0.000000           0.000000           0.543849
}

set {
basis              cc-pvtz
reference          uks
maxiter            500
DAMPING_PERCENTAGE 1
E_CONVERGENCE      1.0E-8
D_CONVERGENCE      1.0E-8
DIIS_MAX_VECS      400
MBIS_MAXITER       8000
guess              read
}

E, wfn = energy('b3lyp', restart_file='last_wfn', return_wfn=True)
properties('b3lyp','MBIS_CHARGES', wfn=wfn)
wfn.to_file('last_wfn')
--------------------------------------------------------------------------

    Molecular point group: d2h
  Charge       = -1
  Multiplicity = 2
  Basis Set: CC-PVTZ
    Blend: CC-PVTZ
  Basis Set: (CC-PVTZ AUX)
    Blend: CC-PVTZ-JKFIT
  @DF-UKS Final Energy:    -0.98169380823245
    Total Energy =                         -0.9816938082324478
 Dipole X            :          0.0000000            0.0000000            0.0000000
 Dipole Y            :          0.0000000            0.0000000            0.0000000
 Dipole Z            :          0.0000000            0.0000000            0.0000000
 Magnitude           :                                                    0.0000000
    Molecular point group: d2h

    Geometry (in Angstrom), charge = -1, multiplicity = 2:

       Center              X                  Y                   Z               Mass
    ------------   -----------------  -----------------  -----------------  -----------------
         H            0.000000000000     0.000000000000    -0.271924500000     1.007825032230
         H            0.000000000000     0.000000000000     0.271924500000     1.007825032230

  Charge       = -1
  Multiplicity = 2
  Basis Set: CC-PVTZ
    Blend: CC-PVTZ
  Basis Set: (CC-PVTZ AUX)
    Blend: CC-PVTZ-JKFIT

    Orbital Energies [Eh]
    ---------------------

    Alpha Occupied:

       1Ag    -0.194447     1B1u    0.232143

    Alpha Virtual:

       2Ag     0.393571     2B1u    0.779548     1B2u    0.816097
       1B3u    0.816097     3Ag     1.218434     1B3g    1.232657
       1B2g    1.232657     3B1u    1.666325     4Ag     2.239474
       4B1u    2.670510     5Ag     3.220013     1B1g    3.220013
       2B3u    3.448550     2B2u    3.448550     2B3g    3.689004
       2B2g    3.689004     6Ag     3.706825     1Au     4.289902
       5B1u    4.289902     3B2u    4.310571     3B3u    4.310571
       6B1u    5.137376     7Ag     6.551336     3B3g    6.588818
       3B2g    6.588818     7B1u    8.728350

    Beta Occupied:

       1Ag    -0.186263

    Beta Virtual:

       1B1u    0.328448     2Ag     0.415083     2B1u    0.804254
       1B2u    0.816322     1B3u    0.816322     1B3g    1.248608
       1B2g    1.248608     3Ag     1.255289     3B1u    1.678691
       4Ag     2.243003     4B1u    2.694527     5Ag     3.219825
       1B1g    3.219825     2B3u    3.447184     2B2u    3.447184
       2B3g    3.705291     2B2g    3.705291     6Ag     3.730527
       5B1u    4.295986     1Au     4.295986     3B2u    4.323022
       3B3u    4.323022     6B1u    5.151940     7Ag     6.560200
       3B3g    6.597236     3B2g    6.597236     7B1u    8.738197

    Final Occupation by Irrep:
             Ag   B1g   B2g   B3g    Au   B1u   B2u   B3u
    DOCC [     1,    0,    0,    0,    0,    0,    0,    0 ]
    SOCC [     0,    0,    0,    0,    0,    1,    0,    0 ]
    NA   [     1,    0,    0,    0,    0,    1,    0,    0 ]
    NB   [     1,    0,    0,    0,    0,    0,    0,    0 ]

  @DF-UKS Final Energy:    -0.98169380859177

   => Energetics <=

    Nuclear Repulsion Energy =              0.9730223107333102
    One-Electron Energy =                  -3.1994000761102619
    Two-Electron Energy =                   2.0210149972045079
    DFT Exchange-Correlation Energy =      -0.7763310404193251
    Empirical Dispersion Energy =           0.0000000000000000
    VV10 Nonlocal Energy =                  0.0000000000000000
    Total Energy =                         -0.9816938085917686

  UHF NO Occupations:
  HONO-1 :    1 Ag 1.9997849
  HONO-0 :    1B1u 1.0000000
  LUNO+0 :    2 Ag 0.0002151
  LUNO+1 :    3 Ag 0.0000000
  LUNO+2 :    2B1u 0.0000000
  LUNO+3 :    4 Ag 0.0000000

Computation Completed

Properties will be evaluated at   0.000000,   0.000000,   0.000000 [a0]

Properties computed using the B3LYP density matrix

 Multipole Moments:

 ------------------------------------------------------------------------------------
     Multipole            Electronic (a.u.)      Nuclear  (a.u.)        Total (a.u.)
 ------------------------------------------------------------------------------------

 L = 1.  Multiply by 2.5417464519 to convert [e a0] to [Debye]
 Dipole X            :          0.0000000            0.0000000            0.0000000
 Dipole Y            :          0.0000000            0.0000000            0.0000000
 Dipole Z            :          0.0000000            0.0000000            0.0000000
 Magnitude           :                                                    0.0000000

 L = 2.  Multiply by 1.3450342976 to convert [e a0^2] to [Debye ang]
 Quadrupole XX       :         -4.0927358            0.0000000           -4.0927358
 Quadrupole XY       :          0.0000000            0.0000000            0.0000000
 Quadrupole XZ       :          0.0000000            0.0000000            0.0000000
 Quadrupole YY       :         -4.0927358            0.0000000           -4.0927358
 Quadrupole YZ       :          0.0000000            0.0000000            0.0000000
 Quadrupole ZZ       :        -10.0962914            0.5281100           -9.5681814
 Traceless XX        :          2.0011852           -0.1760367            1.8251486
 Traceless YY        :          2.0011852           -0.1760367            1.8251486
 Traceless ZZ        :         -4.0023705            0.3520733           -3.6502971

 ------------------------------------------------------------------------------------
  ==> Computing MBIS Charges <==

  Electron Count from Grid (Expected Number):  3.00000 ( 3.00000)
  Difference:  0.00000

  MBIS Charges: (a.u.)
   Center  Symbol  Z      Pop.       Charge
      1       H    1    1.500000   -0.500000
      2       H    1    1.500000   -0.500000

  MBIS Dipoles: [e a0]
   Center  Symbol  Z        X           Y           Z
      1       H    1   -0.000000   -0.000000    0.309140
      2       H    1    0.000000   -0.000000   -0.309140

  MBIS Quadrupoles: [e a0^2]
   Center  Symbol  Z      XX        XY        XZ        YY        YZ        ZZ
      1       H    1   -2.0464    0.0000   -0.0000   -2.0464   -0.0000   -4.3344
      2       H    1   -2.0464   -0.0000   -0.0000   -2.0464   -0.0000   -4.3344

  MBIS Octupoles: [e a0^3]
   Center  Symbol  Z      XXX       XXY       XXZ       XYY       XYZ       XZZ       YYY       YYZ       YZZ       ZZZ
      1       H    1   -0.0000    0.0000    0.8993    0.0000    0.0000    0.0000   -0.0000    0.8993   -0.0000    2.1969
      2       H    1   -0.0000   -0.0000   -0.8993   -0.0000    0.0000    0.0000    0.0000   -0.8993    0.0000   -2.1969

  MBIS Radial Moments:
   Center  Symbol  Z      [a0^2]      [a0^3]      [a0^4]
      1       H    1    8.427088   30.072887   122.748388
      2       H    1    8.427088   30.072887   122.748388

  MBIS Valence Widths: [a0]
   Center  Symbol  Z     Width
      1       H    1    0.654934
      2       H    1    0.654934

*** tstop() called on Mac.lan at Sun Aug 10 17:26:02 2025
Module time:
	user time   =       0.75 seconds =       0.01 minutes
	system time =       1.05 seconds =       0.02 minutes
	total time  =          0 seconds =       0.00 minutes
Total time:
	user time   =       2.27 seconds =       0.04 minutes
	system time =       2.78 seconds =       0.05 minutes
	total time  =          1 seconds =       0.02 minutes

    Psi4 stopped on: Sunday, 10 August 2025 05:26PM
    Psi4 wall time for execution: 0:00:00.83

*** Psi4 exiting successfully. Buy a developer a beer!
