                               Psi4 1.9.1 release

  ==> Input File <==

--------------------------------------------------------------------------
molecule {
-1 2
H           0.000000           0.000000           0.000000
H           0.000000           0.000000           1.718231
}

set {
basis              cc-pvtz
reference          uks
maxiter            500
DAMPING_PERCENTAGE 1
E_CONVERGENCE      1.0E-8
D_CONVERGENCE      1.0E-8
DIIS_MAX_VECS      400
MBIS_MAXITER       8000
guess              read
}

E, wfn = energy('b3lyp', restart_file='last_wfn', return_wfn=True)
properties('b3lyp','MBIS_CHARGES', wfn=wfn)
wfn.to_file('last_wfn')
--------------------------------------------------------------------------

    Molecular point group: d2h
  Charge       = -1
  Multiplicity = 2
  Basis Set: CC-PVTZ
    Blend: CC-PVTZ
  Basis Set: (CC-PVTZ AUX)
    Blend: CC-PVTZ-JKFIT
  @DF-UKS Final Energy:    -1.05596252993729
    Total Energy =                         -1.0559625299372855
 Dipole X            :          0.0000000            0.0000000            0.0000000
 Dipole Y            :          0.0000000            0.0000000            0.0000000
 Dipole Z            :          0.0000000            0.0000000            0.0000000
 Magnitude           :                                                    0.0000000
    Molecular point group: d2h

    Geometry (in Angstrom), charge = -1, multiplicity = 2:

       Center              X                  Y                   Z               Mass
    ------------   -----------------  -----------------  -----------------  -----------------
         H            0.000000000000     0.000000000000    -0.859115500000     1.007825032230
         H            0.000000000000     0.000000000000     0.859115500000     1.007825032230

  Charge       = -1
  Multiplicity = 2
  Basis Set: CC-PVTZ
    Blend: CC-PVTZ
  Basis Set: (CC-PVTZ AUX)
    Blend: CC-PVTZ-JKFIT

    Orbital Energies [Eh]
    ---------------------

    Alpha Occupied:

       1Ag    -0.030190     1B1u    0.089579

    Alpha Virtual:

       2Ag     0.508725     2B1u    0.527984     1B2u    0.812649
       1B3u    0.812649     3Ag     0.862299     1B3g    0.999839
       1B2g    0.999839     3B1u    1.347729     4Ag     2.451451
       4B1u    2.641340     5Ag     3.271057     2B3u    3.335969
       2B2u    3.335969     6Ag     3.481159     1B1g    3.481162
       5B1u    3.524313     1Au     3.524315     2B3g    3.663849
       2B2g    3.663849     6B1u    3.840704     3B2u    3.871353
       3B3u    3.871353     3B2g    4.013231     3B3g    4.013231
       7Ag     4.095082     7B1u    4.708204

    Beta Occupied:

       1Ag     0.028534

    Beta Virtual:

       1B1u    0.204503     2Ag     0.536921     2B1u    0.576911
       1B2u    0.841758     1B3u    0.841758     3Ag     0.898574
       1B2g    1.042424     1B3g    1.042424     3B1u    1.391430
       4Ag     2.528536     4B1u    2.716363     5Ag     3.313036
       2B3u    3.383547     2B2u    3.383547     6Ag     3.530625
       1B1g    3.530628     5B1u    3.574371     1Au     3.574374
       2B3g    3.707917     2B2g    3.707917     6B1u    3.892868
       3B2u    3.935908     3B3u    3.935908     3B2g    4.082971
       3B3g    4.082971     7Ag     4.157742     7B1u    4.765294

    Final Occupation by Irrep:
             Ag   B1g   B2g   B3g    Au   B1u   B2u   B3u
    DOCC [     1,    0,    0,    0,    0,    0,    0,    0 ]
    SOCC [     0,    0,    0,    0,    0,    1,    0,    0 ]
    NA   [     1,    0,    0,    0,    0,    1,    0,    0 ]
    NB   [     1,    0,    0,    0,    0,    0,    0,    0 ]

  @DF-UKS Final Energy:    -1.05596252965397

   => Energetics <=

    Nuclear Repulsion Energy =              0.3079779207044922
    One-Electron Energy =                  -2.3337622279874104
    Two-Electron Energy =                   1.6328935448143991
    DFT Exchange-Correlation Energy =      -0.6630717671854481
    Empirical Dispersion Energy =           0.0000000000000000
    VV10 Nonlocal Energy =                  0.0000000000000000
    Total Energy =                         -1.0559625296539670

  UHF NO Occupations:
  HONO-1 :    1 Ag 1.9970038
  HONO-0 :    1B1u 1.0000000
  LUNO+0 :    2 Ag 0.0029962
  LUNO+1 :    3 Ag 0.0000000
  LUNO+2 :    2B1u 0.0000000
  LUNO+3 :    4 Ag 0.0000000

Computation Completed

Properties will be evaluated at   0.000000,   0.000000,   0.000000 [a0]

Properties computed using the B3LYP density matrix

 Multipole Moments:

 ------------------------------------------------------------------------------------
     Multipole            Electronic (a.u.)      Nuclear  (a.u.)        Total (a.u.)
 ------------------------------------------------------------------------------------

 L = 1.  Multiply by 2.5417464519 to convert [e a0] to [Debye]
 Dipole X            :          0.0000000            0.0000000            0.0000000
 Dipole Y            :          0.0000000            0.0000000            0.0000000
 Dipole Z            :          0.0000000            0.0000000            0.0000000
 Magnitude           :                                                    0.0000000

 L = 2.  Multiply by 1.3450342976 to convert [e a0^2] to [Debye ang]
 Quadrupole XX       :         -4.3998334            0.0000000           -4.3998334
 Quadrupole XY       :          0.0000000            0.0000000            0.0000000
 Quadrupole XZ       :          0.0000000            0.0000000            0.0000000
 Quadrupole YY       :         -4.3998334            0.0000000           -4.3998334
 Quadrupole YZ       :          0.0000000            0.0000000            0.0000000
 Quadrupole ZZ       :        -13.2481981            5.2714591           -7.9767391
 Traceless XX        :          2.9494549           -1.7571530            1.1923019
 Traceless YY        :          2.9494549           -1.7571530            1.1923019
 Traceless ZZ        :         -5.8989098            3.5143061           -2.3846038

 ------------------------------------------------------------------------------------
  ==> Computing MBIS Charges <==

  Electron Count from Grid (Expected Number):  3.00000 ( 3.00000)
  Difference: -0.00000

  MBIS Charges: (a.u.)
   Center  Symbol  Z      Pop.       Charge
      1       H    1    1.500000   -0.500000
      2       H    1    1.500000   -0.500000

  MBIS Dipoles: [e a0]
   Center  Symbol  Z        X           Y           Z
      1       H    1   -0.000000    0.000000    0.114371
      2       H    1    0.000000   -0.000000   -0.114371

  MBIS Quadrupoles: [e a0^2]
   Center  Symbol  Z      XX        XY        XZ        YY        YZ        ZZ
      1       H    1   -2.1999   -0.0000    0.0000   -2.1999    0.0000   -2.2991
      2       H    1   -2.1999   -0.0000   -0.0000   -2.1999    0.0000   -2.2991

  MBIS Octupoles: [e a0^3]
   Center  Symbol  Z      XXX       XXY       XXZ       XYY       XYZ       XZZ       YYY       YYZ       YZZ       ZZZ
      1       H    1   -0.0000   -0.0000    0.1833   -0.0000    0.0000   -0.0000   -0.0000    0.1833    0.0000    0.3181
      2       H    1   -0.0000   -0.0000   -0.1833    0.0000   -0.0000   -0.0000   -0.0000   -0.1833   -0.0000   -0.3181

  MBIS Radial Moments:
   Center  Symbol  Z      [a0^2]      [a0^3]      [a0^4]
      1       H    1    6.698977   19.964458   69.177866
      2       H    1    6.698977   19.964458   69.177866

  MBIS Valence Widths: [a0]
   Center  Symbol  Z     Width
      1       H    1    0.610733
      2       H    1    0.610733

*** tstop() called on Mac.lan at Sun Aug 10 17:26:39 2025
Module time:
	user time   =       0.58 seconds =       0.01 minutes
	system time =       1.21 seconds =       0.02 minutes
	total time  =          0 seconds =       0.00 minutes
Total time:
	user time   =       1.43 seconds =       0.02 minutes
	system time =       3.30 seconds =       0.06 minutes
	total time  =          1 seconds =       0.02 minutes

    Psi4 stopped on: Sunday, 10 August 2025 05:26PM
    Psi4 wall time for execution: 0:00:00.67

*** Psi4 exiting successfully. Buy a developer a beer!
