                               Psi4 1.9.1 release

  ==> Input File <==

--------------------------------------------------------------------------
molecule {
-1 1
O           0.000000           0.000000           0.000000
H           0.000000           0.000000           0.453823
}

set {
basis              cc-pvtz
reference          uks
maxiter            500
DAMPING_PERCENTAGE 1
E_CONVERGENCE      1.0E-8
D_CONVERGENCE      1.0E-8
DIIS_MAX_VECS      400
MBIS_MAXITER       8000
guess              read
}

E, wfn = energy('b3lyp', restart_file='last_wfn', return_wfn=True)
properties('b3lyp','MBIS_CHARGES', wfn=wfn)
wfn.to_file('last_wfn')
--------------------------------------------------------------------------

    Molecular point group: c2v
  Charge       = -1
  Multiplicity = 1
  Basis Set: CC-PVTZ
    Blend: CC-PVTZ
  Basis Set: (CC-PVTZ AUX)
    Blend: CC-PVTZ-JKFIT
  @DF-UKS Final Energy:   -74.69087895936245
    Total Energy =                        -74.6908789593624647
 Dipole X            :          0.0000000            0.0000000            0.0000000
 Dipole Y            :          0.0000000            0.0000000            0.0000000
 Dipole Z            :          0.2358653            0.4000980            0.6359633
 Magnitude           :                                                    0.6359633
    Molecular point group: c2v

    Geometry (in Angstrom), charge = -1, multiplicity = 1:

       Center              X                  Y                   Z               Mass
    ------------   -----------------  -----------------  -----------------  -----------------
         O            0.000000000000     0.000000000000    -0.026900028405    15.994914619570
         H            0.000000000000     0.000000000000     0.426922971595     1.007825032230

  Charge       = -1
  Multiplicity = 1
  Basis Set: CC-PVTZ
    Blend: CC-PVTZ
  Basis Set: (CC-PVTZ AUX)
    Blend: CC-PVTZ-JKFIT

    Orbital Energies [Eh]
    ---------------------

    Alpha Occupied:

       1A1   -18.621321     2A1    -0.731996     3A1    -0.054841
       1B1     0.109107     1B2     0.109107

    Alpha Virtual:

       4A1     0.337437     5A1     0.773172     2B1     0.860557
       2B2     0.860557     6A1     1.106210     7A1     1.177328
       3B1     1.234634     3B2     1.234634     8A1     1.881777
       1A2     1.881777     9A1     2.214304     4B1     2.326335
       4B2     2.326335    10A1     2.856350    11A1     3.592633
       5B1     3.645116     5B2     3.645116    12A1     3.929631
       2A2     3.929631     6B1     4.106734     6B2     4.106734
      13A1     4.357329    14A1     5.386598     7B1     5.588980
       7B2     5.588980     8B2     5.754217     8B1     5.754217
      15A1     6.395005     3A2     6.395005     9B2     6.666300
       9B1     6.666300    16A1     6.717587    17A1     7.141887
       4A2     7.141887    18A1     8.892631    10B2     9.564622
      10B1     9.564622    19A1    10.746639    20A1    18.896975

    Beta Occupied:

       1A1   -18.621321     2A1    -0.731996     3A1    -0.054841
       1B1     0.109107     1B2     0.109107

    Beta Virtual:

       4A1     0.337437     5A1     0.773172     2B1     0.860557
       2B2     0.860557     6A1     1.106210     7A1     1.177328
       3B1     1.234634     3B2     1.234634     8A1     1.881777
       1A2     1.881777     9A1     2.214304     4B1     2.326335
       4B2     2.326335    10A1     2.856350    11A1     3.592633
       5B1     3.645116     5B2     3.645116    12A1     3.929631
       2A2     3.929631     6B1     4.106734     6B2     4.106734
      13A1     4.357329    14A1     5.386598     7B1     5.588980
       7B2     5.588980     8B2     5.754217     8B1     5.754217
      15A1     6.395005     3A2     6.395005     9B2     6.666300
       9B1     6.666300    16A1     6.717587    17A1     7.141887
       4A2     7.141887    18A1     8.892631    10B2     9.564622
      10B1     9.564622    19A1    10.746639    20A1    18.896975

    Final Occupation by Irrep:
             A1    A2    B1    B2
    DOCC [     3,    0,    1,    1 ]
    SOCC [     0,    0,    0,    0 ]
    NA   [     3,    0,    1,    1 ]
    NB   [     3,    0,    1,    1 ]

  @DF-UKS Final Energy:   -74.69087895908629

   => Energetics <=

    Nuclear Repulsion Energy =              9.3283453799388756
    One-Electron Energy =                -124.0461574736797132
    Two-Electron Energy =                  47.8506728634171239
    DFT Exchange-Correlation Energy =      -7.8237397287625736
    Empirical Dispersion Energy =           0.0000000000000000
    VV10 Nonlocal Energy =                  0.0000000000000000
    Total Energy =                        -74.6908789590862909

  UHF NO Occupations:
  HONO-2 :    1 B2 2.0000000
  HONO-1 :    2 A1 2.0000000
  HONO-0 :    3 A1 2.0000000
  LUNO+0 :    4 A1 0.0000000
  LUNO+1 :    5 A1 0.0000000
  LUNO+2 :    6 A1 0.0000000
  LUNO+3 :    7 A1 0.0000000

Computation Completed

Properties will be evaluated at   0.000000,   0.000000,   0.000000 [a0]

Properties computed using the B3LYP density matrix

 Multipole Moments:

 ------------------------------------------------------------------------------------
     Multipole            Electronic (a.u.)      Nuclear  (a.u.)        Total (a.u.)
 ------------------------------------------------------------------------------------

 L = 1.  Multiply by 2.5417464519 to convert [e a0] to [Debye]
 Dipole X            :          0.0000000            0.0000000            0.0000000
 Dipole Y            :          0.0000000            0.0000000            0.0000000
 Dipole Z            :          0.2358653            0.4000980            0.6359633
 Magnitude           :                                                    0.6359633

 L = 2.  Multiply by 1.3450342976 to convert [e a0^2] to [Debye ang]
 Quadrupole XX       :         -5.8850301            0.0000000           -5.8850301
 Quadrupole XY       :          0.0000000            0.0000000            0.0000000
 Quadrupole XZ       :          0.0000000            0.0000000            0.0000000
 Quadrupole YY       :         -5.8850301            0.0000000           -5.8850301
 Quadrupole YZ       :          0.0000000            0.0000000            0.0000000
 Quadrupole ZZ       :         -5.5716904            0.6715463           -4.9001441
 Traceless XX        :         -0.1044466           -0.2238488           -0.3282953
 Traceless YY        :         -0.1044466           -0.2238488           -0.3282953
 Traceless ZZ        :          0.2088932            0.4476975            0.6565907

 ------------------------------------------------------------------------------------
  ==> Computing MBIS Charges <==

  Electron Count from Grid (Expected Number): 10.00000 (10.00000)
  Difference:  0.00000

  MBIS Charges: (a.u.)
   Center  Symbol  Z      Pop.       Charge
      1       O    8    9.470225   -1.470225
      2       H    1    0.529775    0.470225

  MBIS Dipoles: [e a0]
   Center  Symbol  Z        X           Y           Z
      1       O    8    0.000000   -0.000000    0.168291
      2       H    1    0.000000   -0.000000    0.013573

  MBIS Quadrupoles: [e a0^2]
   Center  Symbol  Z      XX        XY        XZ        YY        YZ        ZZ
      1       O    8   -5.8034   -0.0000    0.0000   -5.8034   -0.0000   -5.1309
      2       H    1   -0.0816    0.0000    0.0000   -0.0816   -0.0000   -0.0762

  MBIS Octupoles: [e a0^3]
   Center  Symbol  Z      XXX       XXY       XXZ       XYY       XYZ       XZZ       YYY       YYZ       YZZ       ZZZ
      1       O    8    0.0000   -0.0000    0.3904    0.0000   -0.0000    0.0000   -0.0000    0.3904    0.0000    1.0060
      2       H    1    0.0000   -0.0000    0.0027    0.0000    0.0000    0.0000    0.0000    0.0027   -0.0000    0.0065

  MBIS Radial Moments:
   Center  Symbol  Z      [a0^2]      [a0^3]      [a0^4]
      1       O    8   16.737826   35.059702   87.133809
      2       H    1    0.239427    0.228483    0.262478

  MBIS Valence Widths: [a0]
   Center  Symbol  Z     Width
      1       O    8    0.422690
      2       H    1    0.196196

*** tstop() called on Mac.lan at Sun Aug 10 17:37:36 2025
Module time:
	user time   =       3.29 seconds =       0.05 minutes
	system time =       3.45 seconds =       0.06 minutes
	total time  =          1 seconds =       0.02 minutes
Total time:
	user time   =      12.71 seconds =       0.21 minutes
	system time =       5.33 seconds =       0.09 minutes
	total time  =          2 seconds =       0.03 minutes

    Psi4 stopped on: Sunday, 10 August 2025 05:37PM
    Psi4 wall time for execution: 0:00:01.76

*** Psi4 exiting successfully. Buy a developer a beer!
