                               Psi4 1.9.1 release

  ==> Input File <==

--------------------------------------------------------------------------
molecule {
-1 2
H           0.000000           0.000000           0.000000
H           0.000000           0.000000           0.844272
}

set {
basis              cc-pvtz
reference          uks
maxiter            500
DAMPING_PERCENTAGE 1
E_CONVERGENCE      1.0E-8
D_CONVERGENCE      1.0E-8
DIIS_MAX_VECS      400
MBIS_MAXITER       8000
guess              read
}

E, wfn = energy('b3lyp', restart_file='last_wfn', return_wfn=True)
properties('b3lyp','MBIS_CHARGES', wfn=wfn)
wfn.to_file('last_wfn')
--------------------------------------------------------------------------

    Molecular point group: d2h
  Charge       = -1
  Multiplicity = 2
  Basis Set: CC-PVTZ
    Blend: CC-PVTZ
  Basis Set: (CC-PVTZ AUX)
    Blend: CC-PVTZ-JKFIT
  @DF-UKS Final Energy:    -1.05288189800614
    Total Energy =                         -1.0528818980061390
 Dipole X            :          0.0000000            0.0000000            0.0000000
 Dipole Y            :          0.0000000            0.0000000            0.0000000
 Dipole Z            :          0.0000000            0.0000000            0.0000000
 Magnitude           :                                                    0.0000000
    Molecular point group: d2h

    Geometry (in Angstrom), charge = -1, multiplicity = 2:

       Center              X                  Y                   Z               Mass
    ------------   -----------------  -----------------  -----------------  -----------------
         H            0.000000000000     0.000000000000    -0.422136000000     1.007825032230
         H            0.000000000000     0.000000000000     0.422136000000     1.007825032230

  Charge       = -1
  Multiplicity = 2
  Basis Set: CC-PVTZ
    Blend: CC-PVTZ
  Basis Set: (CC-PVTZ AUX)
    Blend: CC-PVTZ-JKFIT

    Orbital Energies [Eh]
    ---------------------

    Alpha Occupied:

       1Ag    -0.118636     1B1u    0.210671

    Alpha Virtual:

       2Ag     0.432618     2B1u    0.679492     1B3u    0.796785
       1B2u    0.796785     3Ag     1.153106     1B3g    1.189328
       1B2g    1.189328     3B1u    1.601980     4B1u    2.385611
       4Ag     2.439724     1B1g    3.196881     5Ag     3.196881
       2B3u    3.338331     2B2u    3.338331     6Ag     3.595968
       2B2g    3.963361     2B3g    3.963361     1Au     3.995701
       5B1u    3.995701     3B3u    4.029714     3B2u    4.029714
       6B1u    4.354244     3B2g    5.350473     3B3g    5.350473
       7Ag     5.389263     7B1u    6.473005

    Beta Occupied:

       1Ag    -0.096107

    Beta Virtual:

       1B1u    0.305278     2Ag     0.450940     2B1u    0.719451
       1B2u    0.805494     1B3u    0.805494     3Ag     1.193958
       1B3g    1.220194     1B2g    1.220194     3B1u    1.637568
       4B1u    2.415456     4Ag     2.450899     1B1g    3.204895
       5Ag     3.204895     2B3u    3.342147     2B2u    3.342147
       6Ag     3.628133     2B2g    3.994774     2B3g    3.994774
       1Au     4.013448     5B1u    4.013448     3B3u    4.057573
       3B2u    4.057573     6B1u    4.388612     3B2g    5.368760
       3B3g    5.368760     7Ag     5.413079     7B1u    6.492053

    Final Occupation by Irrep:
             Ag   B1g   B2g   B3g    Au   B1u   B2u   B3u
    DOCC [     1,    0,    0,    0,    0,    0,    0,    0 ]
    SOCC [     0,    0,    0,    0,    0,    1,    0,    0 ]
    NA   [     1,    0,    0,    0,    0,    1,    0,    0 ]
    NB   [     1,    0,    0,    0,    0,    0,    0,    0 ]

  @DF-UKS Final Energy:    -1.05288189977413

   => Energetics <=

    Nuclear Repulsion Energy =              0.6267852193013627
    One-Electron Energy =                  -2.8412968541963326
    Two-Electron Energy =                   1.8720156035288165
    DFT Exchange-Correlation Energy =      -0.7103858684079783
    Empirical Dispersion Energy =           0.0000000000000000
    VV10 Nonlocal Energy =                  0.0000000000000000
    Total Energy =                         -1.0528818997741318

  UHF NO Occupations:
  HONO-1 :    1 Ag 1.9996326
  HONO-0 :    1B1u 1.0000000
  LUNO+0 :    2 Ag 0.0003674
  LUNO+1 :    2B1u 0.0000000
  LUNO+2 :    3 Ag 0.0000000
  LUNO+3 :    3B1u 0.0000000

Computation Completed

Properties will be evaluated at   0.000000,   0.000000,   0.000000 [a0]

Properties computed using the B3LYP density matrix

 Multipole Moments:

 ------------------------------------------------------------------------------------
     Multipole            Electronic (a.u.)      Nuclear  (a.u.)        Total (a.u.)
 ------------------------------------------------------------------------------------

 L = 1.  Multiply by 2.5417464519 to convert [e a0] to [Debye]
 Dipole X            :          0.0000000            0.0000000            0.0000000
 Dipole Y            :          0.0000000            0.0000000            0.0000000
 Dipole Z            :          0.0000000            0.0000000            0.0000000
 Magnitude           :                                                    0.0000000

 L = 2.  Multiply by 1.3450342976 to convert [e a0^2] to [Debye ang]
 Quadrupole XX       :         -4.2211219            0.0000000           -4.2211219
 Quadrupole XY       :          0.0000000            0.0000000            0.0000000
 Quadrupole XZ       :          0.0000000            0.0000000            0.0000000
 Quadrupole YY       :         -4.2211219            0.0000000           -4.2211219
 Quadrupole YZ       :          0.0000000            0.0000000            0.0000000
 Quadrupole ZZ       :         -9.9054535            1.2727190           -8.6327345
 Traceless XX        :          1.8947772           -0.4242397            1.4705375
 Traceless YY        :          1.8947772           -0.4242397            1.4705375
 Traceless ZZ        :         -3.7895544            0.8484793           -2.9410751

 ------------------------------------------------------------------------------------
  ==> Computing MBIS Charges <==

  Electron Count from Grid (Expected Number):  3.00000 ( 3.00000)
  Difference:  0.00000

  MBIS Charges: (a.u.)
   Center  Symbol  Z      Pop.       Charge
      1       H    1    1.500000   -0.500000
      2       H    1    1.500000   -0.500000

  MBIS Dipoles: [e a0]
   Center  Symbol  Z        X           Y           Z
      1       H    1   -0.000000    0.000000    0.316050
      2       H    1    0.000000    0.000000   -0.316050

  MBIS Quadrupoles: [e a0^2]
   Center  Symbol  Z      XX        XY        XZ        YY        YZ        ZZ
      1       H    1   -2.1106   -0.0000    0.0000   -2.1106   -0.0000   -3.4939
      2       H    1   -2.1106   -0.0000    0.0000   -2.1106    0.0000   -3.4939

  MBIS Octupoles: [e a0^3]
   Center  Symbol  Z      XXX       XXY       XXZ       XYY       XYZ       XZZ       YYY       YYZ       YZZ       ZZZ
      1       H    1    0.0000    0.0000    0.8606    0.0000    0.0000    0.0000    0.0000    0.8606   -0.0000    1.7648
      2       H    1    0.0000   -0.0000   -0.8606    0.0000   -0.0000    0.0000    0.0000   -0.8606    0.0000   -1.7648

  MBIS Radial Moments:
   Center  Symbol  Z      [a0^2]      [a0^3]      [a0^4]
      1       H    1    7.715070   25.423644   96.965309
      2       H    1    7.715070   25.423644   96.965309

  MBIS Valence Widths: [a0]
   Center  Symbol  Z     Width
      1       H    1    0.643581
      2       H    1    0.643581

*** tstop() called on Mac.lan at Sun Aug 10 17:25:48 2025
Module time:
	user time   =       0.67 seconds =       0.01 minutes
	system time =       1.08 seconds =       0.02 minutes
	total time  =          0 seconds =       0.00 minutes
Total time:
	user time   =       1.64 seconds =       0.03 minutes
	system time =       3.28 seconds =       0.05 minutes
	total time  =          1 seconds =       0.02 minutes

    Psi4 stopped on: Sunday, 10 August 2025 05:25PM
    Psi4 wall time for execution: 0:00:00.78

*** Psi4 exiting successfully. Buy a developer a beer!
