                               Psi4 1.9.1 release

  ==> Input File <==

--------------------------------------------------------------------------
molecule {
-1 1
O           0.000000           0.000000           0.000000
H           0.000000           0.000000           0.567774
}

set {
basis              cc-pvtz
reference          uks
maxiter            500
DAMPING_PERCENTAGE 1
E_CONVERGENCE      1.0E-8
D_CONVERGENCE      1.0E-8
DIIS_MAX_VECS      400
MBIS_MAXITER       8000
guess              read
}

E, wfn = energy('b3lyp', restart_file='last_wfn', return_wfn=True)
properties('b3lyp','MBIS_CHARGES', wfn=wfn)
wfn.to_file('last_wfn')
--------------------------------------------------------------------------

    Molecular point group: c2v
  Charge       = -1
  Multiplicity = 1
  Basis Set: CC-PVTZ
    Blend: CC-PVTZ
  Basis Set: (CC-PVTZ AUX)
    Blend: CC-PVTZ-JKFIT
  @DF-UKS Final Energy:   -75.35358410149735
    Total Energy =                        -75.3535841014973471
 Dipole X            :          0.0000000            0.0000000            0.0000000
 Dipole Y            :          0.0000000            0.0000000            0.0000000
 Dipole Z            :          0.1367368            0.5005591            0.6372960
 Magnitude           :                                                    0.6372960
    Molecular point group: c2v

    Geometry (in Angstrom), charge = -1, multiplicity = 1:

       Center              X                  Y                   Z               Mass
    ------------   -----------------  -----------------  -----------------  -----------------
         O            0.000000000000     0.000000000000    -0.033654391090    15.994914619570
         H            0.000000000000     0.000000000000     0.534119608910     1.007825032230

  Charge       = -1
  Multiplicity = 1
  Basis Set: CC-PVTZ
    Blend: CC-PVTZ
  Basis Set: (CC-PVTZ AUX)
    Blend: CC-PVTZ-JKFIT

    Orbital Energies [Eh]
    ---------------------

    Alpha Occupied:

       1A1   -18.606607     2A1    -0.673790     3A1    -0.041737
       1B1     0.115746     1B2     0.115746

    Alpha Virtual:

       4A1     0.335481     5A1     0.797974     2B1     0.898616
       2B2     0.898616     6A1     1.043709     7A1     1.168195
       3B2     1.179146     3B1     1.179146     1A2     1.892109
       8A1     1.892109     9A1     2.173542     4B2     2.285773
       4B1     2.285773    10A1     2.592853    11A1     3.369001
       5B2     3.720389     5B1     3.720389    12A1     3.861979
       2A2     3.861979     6B2     4.135789     6B1     4.135789
      13A1     4.392640    14A1     5.214070     7B2     5.215043
       7B1     5.215043     8B2     5.589553     8B1     5.589553
       3A2     6.475142    15A1     6.475142     9B2     6.596214
       9B1     6.596214    16A1     6.601042     4A2     6.741832
      17A1     6.741833    18A1     8.551155    19A1     8.990142
      10B2     9.157987    10B1     9.157987    20A1    16.621714

    Beta Occupied:

       1A1   -18.606607     2A1    -0.673790     3A1    -0.041737
       1B1     0.115746     1B2     0.115746

    Beta Virtual:

       4A1     0.335481     5A1     0.797974     2B1     0.898616
       2B2     0.898616     6A1     1.043709     7A1     1.168195
       3B2     1.179146     3B1     1.179146     1A2     1.892109
       8A1     1.892109     9A1     2.173542     4B2     2.285773
       4B1     2.285773    10A1     2.592853    11A1     3.369001
       5B2     3.720389     5B1     3.720389    12A1     3.861979
       2A2     3.861979     6B2     4.135789     6B1     4.135789
      13A1     4.392640    14A1     5.214070     7B2     5.215043
       7B1     5.215043     8B2     5.589553     8B1     5.589553
       3A2     6.475142    15A1     6.475142     9B2     6.596214
       9B1     6.596214    16A1     6.601042     4A2     6.741832
      17A1     6.741833    18A1     8.551155    19A1     8.990142
      10B2     9.157987    10B1     9.157987    20A1    16.621714

    Final Occupation by Irrep:
             A1    A2    B1    B2
    DOCC [     3,    0,    1,    1 ]
    SOCC [     0,    0,    0,    0 ]
    NA   [     3,    0,    1,    1 ]
    NB   [     3,    0,    1,    1 ]

  @DF-UKS Final Energy:   -75.35358410823298

   => Energetics <=

    Nuclear Repulsion Energy =              7.4561668645623085
    One-Electron Energy =                -121.9047959720289214
    Two-Electron Energy =                  46.8064394595358451
    DFT Exchange-Correlation Energy =      -7.7113944603022047
    Empirical Dispersion Energy =           0.0000000000000000
    VV10 Nonlocal Energy =                  0.0000000000000000
    Total Energy =                        -75.3535841082329654

  UHF NO Occupations:
  HONO-2 :    2 A1 2.0000000
  HONO-1 :    1 B2 2.0000000
  HONO-0 :    3 A1 2.0000000
  LUNO+0 :    4 A1 0.0000000
  LUNO+1 :    5 A1 0.0000000
  LUNO+2 :    6 A1 0.0000000
  LUNO+3 :    7 A1 0.0000000

Computation Completed

Properties will be evaluated at   0.000000,   0.000000,   0.000000 [a0]

Properties computed using the B3LYP density matrix

 Multipole Moments:

 ------------------------------------------------------------------------------------
     Multipole            Electronic (a.u.)      Nuclear  (a.u.)        Total (a.u.)
 ------------------------------------------------------------------------------------

 L = 1.  Multiply by 2.5417464519 to convert [e a0] to [Debye]
 Dipole X            :          0.0000000            0.0000000            0.0000000
 Dipole Y            :          0.0000000            0.0000000            0.0000000
 Dipole Z            :          0.1367368            0.5005591            0.6372960
 Magnitude           :                                                    0.6372960

 L = 2.  Multiply by 1.3450342976 to convert [e a0^2] to [Debye ang]
 Quadrupole XX       :         -5.9587197            0.0000000           -5.9587197
 Quadrupole XY       :          0.0000000            0.0000000            0.0000000
 Quadrupole XZ       :          0.0000000            0.0000000            0.0000000
 Quadrupole YY       :         -5.9587197            0.0000000           -5.9587197
 Quadrupole YZ       :          0.0000000            0.0000000            0.0000000
 Quadrupole ZZ       :         -5.9815573            1.0511240           -4.9304333
 Traceless XX        :          0.0076125           -0.3503747           -0.3427621
 Traceless YY        :          0.0076125           -0.3503747           -0.3427621
 Traceless ZZ        :         -0.0152251            0.7007493            0.6855243

 ------------------------------------------------------------------------------------
  ==> Computing MBIS Charges <==

  Electron Count from Grid (Expected Number): 10.00000 (10.00000)
  Difference: -0.00000

  MBIS Charges: (a.u.)
   Center  Symbol  Z      Pop.       Charge
      1       O    8    9.513309   -1.513309
      2       H    1    0.486691    0.513309

  MBIS Dipoles: [e a0]
   Center  Symbol  Z        X           Y           Z
      1       O    8   -0.000000   -0.000000    0.008805
      2       H    1   -0.000000   -0.000000    0.014144

  MBIS Quadrupoles: [e a0^2]
   Center  Symbol  Z      XX        XY        XZ        YY        YZ        ZZ
      1       O    8   -5.8623    0.0000    0.0000   -5.8623    0.0000   -5.3817
      2       H    1   -0.0964    0.0000   -0.0000   -0.0964    0.0000   -0.0930

  MBIS Octupoles: [e a0^3]
   Center  Symbol  Z      XXX       XXY       XXZ       XYY       XYZ       XZZ       YYY       YYZ       YZZ       ZZZ
      1       O    8   -0.0000   -0.0000    0.2121   -0.0000    0.0000    0.0000    0.0000    0.2121    0.0000    0.3643
      2       H    1    0.0000    0.0000    0.0028    0.0000    0.0000   -0.0000    0.0000    0.0028    0.0000    0.0062

  MBIS Radial Moments:
   Center  Symbol  Z      [a0^2]      [a0^3]      [a0^4]
      1       O    8   17.106272   35.774270   88.170206
      2       H    1    0.285855    0.312948    0.412722

  MBIS Valence Widths: [a0]
   Center  Symbol  Z     Width
      1       O    8    0.427152
      2       H    1    0.223022

*** tstop() called on Mac.lan at Sun Aug 10 17:37:25 2025
Module time:
	user time   =       3.04 seconds =       0.05 minutes
	system time =       3.30 seconds =       0.06 minutes
	total time  =          1 seconds =       0.02 minutes
Total time:
	user time   =       9.97 seconds =       0.17 minutes
	system time =       5.56 seconds =       0.09 minutes
	total time  =          2 seconds =       0.03 minutes

    Psi4 stopped on: Sunday, 10 August 2025 05:37PM
    Psi4 wall time for execution: 0:00:01.52

*** Psi4 exiting successfully. Buy a developer a beer!
