                               Psi4 1.9.1 release

  ==> Input File <==

--------------------------------------------------------------------------
molecule {
-1 2
O           0.000000           0.000000           0.000000
C           0.000000           0.000000           0.800893
}

set {
basis              cc-pvtz
reference          uks
maxiter            500
DAMPING_PERCENTAGE 1
E_CONVERGENCE      1.0E-8
D_CONVERGENCE      1.0E-8
DIIS_MAX_VECS      400
MBIS_MAXITER       8000
guess              read
}

E, wfn = energy('b3lyp', restart_file='last_wfn', return_wfn=True)
properties('b3lyp','MBIS_CHARGES', wfn=wfn)
wfn.to_file('last_wfn')
--------------------------------------------------------------------------

    Molecular point group: c2v
  Charge       = -1
  Multiplicity = 2
  Basis Set: CC-PVTZ
    Blend: CC-PVTZ
  Basis Set: (CC-PVTZ AUX)
    Blend: CC-PVTZ-JKFIT
  @DF-UKS Final Energy:  -112.59735947435388
    Total Energy =                       -112.5973594743538797
 Dipole X            :          0.0000000            0.0000000            0.0000000
 Dipole Y            :          0.0000000            0.0000000            0.0000000
 Dipole Z            :         -1.5932944           -0.0016496           -1.5949439
 Magnitude           :                                                    1.5949439
    Molecular point group: c2v

    Geometry (in Angstrom), charge = -1, multiplicity = 2:

       Center              X                  Y                   Z               Mass
    ------------   -----------------  -----------------  -----------------  -----------------
         O            0.000000000000     0.000000000000    -0.343302207940    15.994914619570
         C            0.000000000000     0.000000000000     0.457590792060    12.000000000000

  Charge       = -1
  Multiplicity = 2
  Basis Set: CC-PVTZ
    Blend: CC-PVTZ
  Basis Set: (CC-PVTZ AUX)
    Blend: CC-PVTZ-JKFIT

    Orbital Energies [Eh]
    ---------------------

    Alpha Occupied:

       1A1   -18.874990     2A1    -9.882338     3A1    -1.006206
       1B1    -0.331650     1B2    -0.327892     4A1    -0.285177
       5A1    -0.044884     2B1     0.296902

    Alpha Virtual:

       2B2     0.361657     6A1     0.396976     7A1     0.551806
       3B2     0.568606     3B1     0.569227     8A1     0.787379
       4B1     0.854660     4B2     0.858470     1A2     0.917136
       9A1     0.919510    10A1     1.126075     5B1     1.298761
       5B2     1.299920    11A1     1.548758     2A2     1.884393
      12A1     1.885468     6B2     1.969985     6B1     1.974324
      13A1     2.067617    14A1     2.439471     7B2     2.497998
       7B1     2.498742     8B1     2.946568     8B2     2.946625
      15A1     3.025524     3A2     3.200456    16A1     3.201387
       9B2     3.352602     9B1     3.355210     4A2     3.406665
      17A1     3.406975    18A1     3.454698    10B1     4.062980
      10B2     4.064373    19A1     4.393528    11B2     4.550139
      11B1     4.553306    12B1     5.488339    12B2     5.488353
      20A1     5.934182     5A2     6.433221    21A1     6.433622
       6A2     6.583966    22A1     6.584460    23A1     6.736787
      13B2     6.812828    13B1     6.814163    24A1     7.458457
      14B2     7.717358    14B1     7.717598    25A1     9.908712
      26A1    16.884013

    Beta Occupied:

       1A1   -18.868891     2A1    -9.882059     3A1    -0.998790
       1B2    -0.324559     1B1    -0.305898     4A1    -0.275918
       5A1    -0.028203

    Beta Virtual:

       2B2     0.372420     2B1     0.396733     6A1     0.404627
       7A1     0.568048     3B2     0.569256     3B1     0.585333
       8A1     0.794390     4B2     0.861309     4B1     0.876364
       1A2     0.938490     9A1     0.938840    10A1     1.134027
       5B2     1.302120     5B1     1.324463    11A1     1.553783
       2A2     1.898476    12A1     1.898509     6B2     1.971486
       6B1     1.989397    13A1     2.073524    14A1     2.449710
       7B2     2.499202     7B1     2.512888     8B2     2.958962
       8B1     2.958990    15A1     3.029539     3A2     3.211869
      16A1     3.212001     9B2     3.351030     9B1     3.369527
      17A1     3.412896     4A2     3.414701    18A1     3.459831
      10B2     4.067443    10B1     4.085430    19A1     4.398554
      11B2     4.551624    11B1     4.568107    12B2     5.500175
      12B1     5.500178    20A1     5.939368     5A2     6.447446
      21A1     6.447463    22A1     6.598896     6A2     6.599004
      23A1     6.741621    13B2     6.814780    13B1     6.828797
      24A1     7.462954    14B2     7.719391    14B1     7.733908
      25A1     9.915253    26A1    16.891672

    Final Occupation by Irrep:
             A1    A2    B1    B2
    DOCC [     5,    0,    1,    1 ]
    SOCC [     0,    0,    1,    0 ]
    NA   [     5,    0,    2,    1 ]
    NB   [     5,    0,    1,    1 ]

  @DF-UKS Final Energy:  -112.59735947360814

   => Energetics <=

    Nuclear Repulsion Energy =             31.7152305141385966
    One-Electron Energy =                -218.9679867438545386
    Two-Electron Energy =                  86.5174886926609048
    DFT Exchange-Correlation Energy =     -11.8620919365530959
    Empirical Dispersion Energy =           0.0000000000000000
    VV10 Nonlocal Energy =                  0.0000000000000000
    Total Energy =                       -112.5973594736081367

  UHF NO Occupations:
  HONO-2 :    1 B1 1.9998789
  HONO-1 :    5 A1 1.9994954
  HONO-0 :    2 B1 1.0000000
  LUNO+0 :    6 A1 0.0005046
  LUNO+1 :    3 B1 0.0001211
  LUNO+2 :    7 A1 0.0000268
  LUNO+3 :    2 B2 0.0000070

Computation Completed

Properties will be evaluated at   0.000000,   0.000000,   0.000000 [a0]

Properties computed using the B3LYP density matrix

 Multipole Moments:

 ------------------------------------------------------------------------------------
     Multipole            Electronic (a.u.)      Nuclear  (a.u.)        Total (a.u.)
 ------------------------------------------------------------------------------------

 L = 1.  Multiply by 2.5417464519 to convert [e a0] to [Debye]
 Dipole X            :          0.0000000            0.0000000            0.0000000
 Dipole Y            :          0.0000000            0.0000000            0.0000000
 Dipole Z            :         -1.5932944           -0.0016496           -1.5949439
 Magnitude           :                                                    1.5949439

 L = 2.  Multiply by 1.3450342976 to convert [e a0^2] to [Debye ang]
 Quadrupole XX       :        -13.3376005            0.0000000          -13.3376005
 Quadrupole XY       :          0.0000000            0.0000000            0.0000000
 Quadrupole XZ       :          0.0000000            0.0000000            0.0000000
 Quadrupole YY       :         -9.3781550            0.0000000           -9.3781550
 Quadrupole YZ       :          0.0000000            0.0000000            0.0000000
 Quadrupole ZZ       :        -20.7806237            7.8534402          -12.9271835
 Traceless XX        :          1.1611925           -2.6178134           -1.4566209
 Traceless YY        :          5.1206381           -2.6178134            2.5028247
 Traceless ZZ        :         -6.2818307            5.2356268           -1.0462039

 ------------------------------------------------------------------------------------
  ==> Computing MBIS Charges <==

  Electron Count from Grid (Expected Number): 15.00000 (15.00000)
  Difference:  0.00000

  MBIS Charges: (a.u.)
   Center  Symbol  Z      Pop.       Charge
      1       O    8    7.806099    0.193901
      2       C    6    7.193902   -1.193902

  MBIS Dipoles: [e a0]
   Center  Symbol  Z        X           Y           Z
      1       O    8   -0.000000    0.000000   -0.023138
      2       C    6   -0.000000    0.000000   -0.413620

  MBIS Quadrupoles: [e a0^2]
   Center  Symbol  Z      XX        XY        XZ        YY        YZ        ZZ
      1       O    8   -2.8293   -0.0000    0.0000   -2.6822   -0.0000   -3.2236
      2       C    6   -10.5083   -0.0000    0.0000   -6.6960    0.0000   -8.2072

  MBIS Octupoles: [e a0^3]
   Center  Symbol  Z      XXX       XXY       XXZ       XYY       XYZ       XZZ       YYY       YYZ       YZZ       ZZZ
      1       O    8   -0.0000    0.0000   -0.0080   -0.0000   -0.0000   -0.0000   -0.0000    0.0639   -0.0000    0.2392
      2       C    6    0.0000    0.0000   -3.2322   -0.0000    0.0000   -0.0000    0.0000   -1.0167    0.0000   -1.0547

  MBIS Radial Moments:
   Center  Symbol  Z      [a0^2]      [a0^3]      [a0^4]
      1       O    8    8.735023   14.462210   28.952533
      2       C    6   25.411481   77.981917   278.119755

  MBIS Valence Widths: [a0]
   Center  Symbol  Z     Width
      1       O    8    0.342808
      2       C    6    0.624981

*** tstop() called on Mac.lan at Sun Aug 10 17:42:13 2025
Module time:
	user time   =       3.70 seconds =       0.06 minutes
	system time =       2.61 seconds =       0.04 minutes
	total time  =          1 seconds =       0.02 minutes
Total time:
	user time   =      18.46 seconds =       0.31 minutes
	system time =       5.12 seconds =       0.09 minutes
	total time  =          3 seconds =       0.05 minutes

    Psi4 stopped on: Sunday, 10 August 2025 05:42PM
    Psi4 wall time for execution: 0:00:02.28

*** Psi4 exiting successfully. Buy a developer a beer!
