                               Psi4 1.9.1 release

  ==> Input File <==

--------------------------------------------------------------------------
molecule {
-1 2
O           0.000000           0.000000           0.000000
O           0.000000           0.000000           0.632025
}

set {
basis              cc-pvtz
reference          uks
maxiter            500
DAMPING_PERCENTAGE 1
E_CONVERGENCE      1.0E-8
D_CONVERGENCE      1.0E-8
DIIS_MAX_VECS      400
MBIS_MAXITER       8000
guess              read
}

E, wfn = energy('b3lyp', restart_file='last_wfn', return_wfn=True)
properties('b3lyp','MBIS_CHARGES', wfn=wfn)
wfn.to_file('last_wfn')
--------------------------------------------------------------------------

    Molecular point group: d2h
  Charge       = -1
  Multiplicity = 2
  Basis Set: CC-PVTZ
    Blend: CC-PVTZ
  Basis Set: (CC-PVTZ AUX)
    Blend: CC-PVTZ-JKFIT
  @DF-UKS Final Energy:  -147.48130779316176
    Total Energy =                       -147.4813077931617897
 Dipole X            :          0.0000000            0.0000000            0.0000000
 Dipole Y            :          0.0000000            0.0000000            0.0000000
 Dipole Z            :          0.0000000            0.0000000            0.0000000
 Magnitude           :                                                    0.0000000
    Molecular point group: d2h

    Geometry (in Angstrom), charge = -1, multiplicity = 2:

       Center              X                  Y                   Z               Mass
    ------------   -----------------  -----------------  -----------------  -----------------
         O            0.000000000000     0.000000000000    -0.316012500000    15.994914619570
         O            0.000000000000     0.000000000000     0.316012500000    15.994914619570

  Charge       = -1
  Multiplicity = 2
  Basis Set: CC-PVTZ
    Blend: CC-PVTZ
  Basis Set: (CC-PVTZ AUX)
    Blend: CC-PVTZ-JKFIT

    Orbital Energies [Eh]
    ---------------------

    Alpha Occupied:

       1Ag   -18.994185     1B1u  -18.905516     2Ag    -1.518828
       1B2u   -0.669524     1B3u   -0.637526     3Ag    -0.338321
       2B1u   -0.286117     1B3g    0.408368     1B2g    0.438979

    Alpha Virtual:

       3B1u    0.606864     2B2u    0.653912     2B3u    0.675078
       4Ag     0.743683     5Ag     1.009282     2B3g    1.022770
       2B2g    1.047178     1B1g    1.447890     6Ag     1.448332
       4B1u    1.535930     5B1u    2.102145     3B2u    2.119058
       3B3u    2.148586     1Au     2.219867     6B1u    2.221269
       7Ag     2.244602     3B3g    2.583602     3B2g    2.607206
       4B2u    3.415339     4B3u    3.442751     7B1u    4.421309
       8Ag     4.502200     4B3g    4.601728     4B2g    4.631815
       5B2u    4.810761     5B3u    4.810764     2B1g    5.089589
       9Ag     5.090021     8B1u    5.114864     6B2u    5.814926
       6B3u    5.841748    10Ag     6.000922     5B3g    6.119214
       5B2g    6.119233     9B1u    6.134157     2Au     6.134206
       6B3g    6.320489     6B2g    6.347782    11Ag     6.418144
       3B1g    6.440676    12Ag     6.441352    10B1u    7.294983
       7B2u    7.911221     7B3u    7.937650     3Au     8.458695
      11B1u    8.458866     7B3g   10.928767     7B2g   10.956417
      12B1u   10.978118    13Ag    12.151143    13B1u   37.350819

    Beta Occupied:

       1Ag   -18.986827     1B1u  -18.897935     2Ag    -1.510405
       1B3u   -0.630877     1B2u   -0.623325     3Ag    -0.315202
       2B1u   -0.252225     1B2g    0.449985

    Beta Virtual:

       1B3g    0.542246     3B1u    0.617921     2B3u    0.680001
       2B2u    0.680384     4Ag     0.753298     5Ag     1.022261
       2B2g    1.056006     2B3g    1.081308     1B1g    1.463998
       6Ag     1.464876     4B1u    1.559278     5B1u    2.119635
       3B3u    2.153639     3B2u    2.159825     7Ag     2.250725
       1Au     2.253684     6B1u    2.255448     3B2g    2.612889
       3B3g    2.622538     4B2u    3.443050     4B3u    3.447596
       7B1u    4.432946     8Ag     4.513817     4B2g    4.639824
       4B3g    4.645682     5B3u    4.827586     5B2u    4.827633
       2B1g    5.102467     9Ag     5.103184     8B1u    5.139287
       6B3u    5.845959     6B2u    5.850107    10Ag     6.013886
       5B2g    6.148800     5B3g    6.148883     2Au     6.166725
       9B1u    6.168287     6B2g    6.351353     6B3g    6.353358
      11Ag     6.428010     3B1g    6.468891    12Ag     6.470157
      10B1u    7.307890     7B2u    7.938694     7B3u    7.940574
       3Au     8.482683    11B1u    8.483671     7B2g   10.961829
       7B3g   10.965169    12B1u   10.986260    13Ag    12.168834
      13B1u   37.360749

    Final Occupation by Irrep:
             Ag   B1g   B2g   B3g    Au   B1u   B2u   B3u
    DOCC [     3,    0,    1,    0,    0,    2,    1,    1 ]
    SOCC [     0,    0,    0,    1,    0,    0,    0,    0 ]
    NA   [     3,    0,    1,    1,    0,    2,    1,    1 ]
    NB   [     3,    0,    1,    0,    0,    2,    1,    1 ]

  @DF-UKS Final Energy:  -147.48130779598063

   => Energetics <=

    Nuclear Repulsion Energy =             53.5854459600174167
    One-Electron Energy =                -310.1779870554381091
    Two-Electron Energy =                 124.0389011581951593
    DFT Exchange-Correlation Energy =     -14.9276678587550986
    Empirical Dispersion Energy =           0.0000000000000000
    VV10 Nonlocal Energy =                  0.0000000000000000
    Total Energy =                       -147.4813077959806265

  UHF NO Occupations:
  HONO-2 :    1B2u 1.9999355
  HONO-1 :    2B1u 1.9998956
  HONO-0 :    1B3g 1.0000000
  LUNO+0 :    3B1u 0.0001044
  LUNO+1 :    2B2u 0.0000645
  LUNO+2 :    4 Ag 0.0000627
  LUNO+3 :    2B2g 0.0000125

Computation Completed

Properties will be evaluated at   0.000000,   0.000000,   0.000000 [a0]

Properties computed using the B3LYP density matrix

 Multipole Moments:

 ------------------------------------------------------------------------------------
     Multipole            Electronic (a.u.)      Nuclear  (a.u.)        Total (a.u.)
 ------------------------------------------------------------------------------------

 L = 1.  Multiply by 2.5417464519 to convert [e a0] to [Debye]
 Dipole X            :          0.0000000            0.0000000            0.0000000
 Dipole Y            :          0.0000000            0.0000000            0.0000000
 Dipole Z            :          0.0000000            0.0000000            0.0000000
 Magnitude           :                                                    0.0000000

 L = 2.  Multiply by 1.3450342976 to convert [e a0^2] to [Debye ang]
 Quadrupole XX       :         -9.6858609            0.0000000           -9.6858609
 Quadrupole XY       :          0.0000000            0.0000000            0.0000000
 Quadrupole XZ       :          0.0000000            0.0000000            0.0000000
 Quadrupole YY       :         -8.2203485            0.0000000           -8.2203485
 Quadrupole YZ       :          0.0000000            0.0000000            0.0000000
 Quadrupole ZZ       :        -17.7691821            5.7059274          -12.0632547
 Traceless XX        :          2.2059362           -1.9019758            0.3039605
 Traceless YY        :          3.6714487           -1.9019758            1.7694729
 Traceless ZZ        :         -5.8773849            3.8039516           -2.0734333

 ------------------------------------------------------------------------------------
  ==> Computing MBIS Charges <==

  Electron Count from Grid (Expected Number): 17.00000 (17.00000)
  Difference: -0.00000

  MBIS Charges: (a.u.)
   Center  Symbol  Z      Pop.       Charge
      1       O    8    8.499999   -0.499999
      2       O    8    8.499999   -0.499999

  MBIS Dipoles: [e a0]
   Center  Symbol  Z        X           Y           Z
      1       O    8   -0.000000   -0.000000    0.413220
      2       O    8   -0.000000    0.000000   -0.413220

  MBIS Quadrupoles: [e a0^2]
   Center  Symbol  Z      XX        XY        XZ        YY        YZ        ZZ
      1       O    8   -4.8429    0.0000   -0.0000   -4.1102   -0.0000   -5.3598
      2       O    8   -4.8429   -0.0000    0.0000   -4.1102   -0.0000   -5.3598

  MBIS Octupoles: [e a0^3]
   Center  Symbol  Z      XXX       XXY       XXZ       XYY       XYZ       XZZ       YYY       YYZ       YZZ       ZZZ
      1       O    8   -0.0000   -0.0000    1.3117   -0.0000   -0.0000   -0.0000   -0.0000    0.9181   -0.0000    0.6248
      2       O    8   -0.0000   -0.0000   -1.3117   -0.0000    0.0000   -0.0000    0.0000   -0.9181   -0.0000   -0.6248

  MBIS Radial Moments:
   Center  Symbol  Z      [a0^2]      [a0^3]      [a0^4]
      1       O    8   14.312891   31.386249   83.190946
      2       O    8   14.312891   31.386249   83.190946

  MBIS Valence Widths: [a0]
   Center  Symbol  Z     Width
      1       O    8    0.411761
      2       O    8    0.411761

*** tstop() called on Mac.lan at Sun Aug 10 17:27:51 2025
Module time:
	user time   =       3.91 seconds =       0.07 minutes
	system time =       2.60 seconds =       0.04 minutes
	total time  =          0 seconds =       0.00 minutes
Total time:
	user time   =      17.13 seconds =       0.29 minutes
	system time =       4.79 seconds =       0.08 minutes
	total time  =          2 seconds =       0.03 minutes

    Psi4 stopped on: Sunday, 10 August 2025 05:27PM
    Psi4 wall time for execution: 0:00:02.13

*** Psi4 exiting successfully. Buy a developer a beer!
