                               Psi4 1.9.1 release

  ==> Input File <==

--------------------------------------------------------------------------
molecule {
-1 3
O           0.000000           0.000000           0.000000
N           0.000000           0.000000           1.367401
}

set {
basis              cc-pvtz
reference          uks
maxiter            500
DAMPING_PERCENTAGE 1
E_CONVERGENCE      1.0E-8
D_CONVERGENCE      1.0E-8
DIIS_MAX_VECS      400
MBIS_MAXITER       8000
guess              read
}

E, wfn = energy('b3lyp', restart_file='last_wfn', return_wfn=True)
properties('b3lyp','MBIS_CHARGES', wfn=wfn)
wfn.to_file('last_wfn')
--------------------------------------------------------------------------

    Molecular point group: c2v
  Charge       = -1
  Multiplicity = 3
  Basis Set: CC-PVTZ
    Blend: CC-PVTZ
  Basis Set: (CC-PVTZ AUX)
    Blend: CC-PVTZ-JKFIT
  @DF-UKS Final Energy:  -129.92299559655279
    Total Energy =                       -129.9229955965527950
 Dipole X            :          0.0000000            0.0000000            0.0000000
 Dipole Y            :          0.0000000            0.0000000            0.0000000
 Dipole Z            :         -0.1683532           -0.0051847           -0.1735380
 Magnitude           :                                                    0.1735380
    Molecular point group: c2v

    Geometry (in Angstrom), charge = -1, multiplicity = 3:

       Center              X                  Y                   Z               Mass
    ------------   -----------------  -----------------  -----------------  -----------------
         O            0.000000000000     0.000000000000    -0.638303375494    15.994914619570
         N            0.000000000000     0.000000000000     0.729097624506    14.003074004430

  Charge       = -1
  Multiplicity = 3
  Basis Set: CC-PVTZ
    Blend: CC-PVTZ
  Basis Set: (CC-PVTZ AUX)
    Blend: CC-PVTZ-JKFIT

    Orbital Energies [Eh]
    ---------------------

    Alpha Occupied:

       1A1   -18.842058     2A1   -14.052514     3A1    -0.721012
       4A1    -0.361234     1B1    -0.097222     1B2    -0.097222
       5A1    -0.091384     2B1     0.095473     2B2     0.095473

    Alpha Virtual:

       6A1     0.449978     7A1     0.722403     3B1     0.726408
       3B2     0.726408     8A1     0.776187     9A1     0.877886
       4B1     0.899756     4B2     0.899756     1A2     1.288408
      10A1     1.288408     5B2     1.383944     5B1     1.383944
      11A1     1.482603    12A1     1.826712     2A2     1.826712
      13A1     1.868218     6B1     2.227015     6B2     2.227015
      14A1     2.414585     7B2     3.146844     7B1     3.146844
      15A1     3.411908     8B1     3.822328     8B2     3.822328
       3A2     4.135983    16A1     4.135983     9B2     4.167382
       9B1     4.167382    17A1     4.194133    10B1     4.364159
      10B2     4.364159    18A1     4.669143    19A1     4.710050
       4A2     4.710057    11B1     4.970980    11B2     4.970980
      20A1     4.987929    12B1     5.429756    12B2     5.429756
      21A1     5.618900     5A2     5.618901    22A1     5.838043
      13B2     6.227486    13B1     6.227486     6A2     6.520954
      23A1     6.520958    24A1     6.765886    14B2     6.985970
      14B1     6.985970    25A1     7.726243    26A1     9.767965

    Beta Occupied:

       1A1   -18.823767     2A1   -14.023020     3A1    -0.676623
       4A1    -0.282813     5A1    -0.059238     1B1    -0.021381
       1B2    -0.021381

    Beta Virtual:

       2B1     0.263824     2B2     0.263824     6A1     0.477278
       7A1     0.742868     3B1     0.780011     3B2     0.780011
       8A1     0.803077     9A1     0.893820     4B1     0.929914
       4B2     0.929914     1A2     1.345212    10A1     1.345212
       5B2     1.413239     5B1     1.413239    11A1     1.503493
      12A1     1.864230     2A2     1.864230    13A1     1.893978
       6B2     2.254831     6B1     2.254831    14A1     2.434781
       7B2     3.228284     7B1     3.228284    15A1     3.434596
       8B1     3.868098     8B2     3.868098     3A2     4.187488
      16A1     4.187488    17A1     4.230838     9B2     4.256112
       9B1     4.256112    10B1     4.404305    10B2     4.404305
      18A1     4.691507    19A1     4.831210     4A2     4.831216
      11B1     5.029561    11B2     5.029561    20A1     5.037633
      12B1     5.473224    12B2     5.473224    21A1     5.650340
       5A2     5.650341    22A1     5.864236    13B2     6.257528
      13B1     6.257528     6A2     6.586839    23A1     6.586842
      24A1     6.785040    14B2     7.018014    14B1     7.018014
      25A1     7.759159    26A1     9.800119

    Final Occupation by Irrep:
             A1    A2    B1    B2
    DOCC [     5,    0,    1,    1 ]
    SOCC [     0,    0,    1,    1 ]
    NA   [     5,    0,    2,    2 ]
    NB   [     5,    0,    1,    1 ]

  @DF-UKS Final Energy:  -129.92299559676570

   => Energetics <=

    Nuclear Repulsion Energy =             21.6717142941390257
    One-Electron Energy =                -226.1338737135851318
    Two-Electron Energy =                  87.1647845075728895
    DFT Exchange-Correlation Energy =     -12.6256206848924943
    Empirical Dispersion Energy =           0.0000000000000000
    VV10 Nonlocal Energy =                  0.0000000000000000
    Total Energy =                       -129.9229955967657020

  UHF NO Occupations:
  HONO-2 :    1 B2 1.9984510
  HONO-1 :    2 B1 1.0000000
  HONO-0 :    2 B2 1.0000000
  LUNO+0 :    3 B2 0.0015490
  LUNO+1 :    3 B1 0.0015490
  LUNO+2 :    6 A1 0.0012891
  LUNO+3 :    7 A1 0.0002051

Computation Completed

Properties will be evaluated at   0.000000,   0.000000,   0.000000 [a0]

Properties computed using the B3LYP density matrix

 Multipole Moments:

 ------------------------------------------------------------------------------------
     Multipole            Electronic (a.u.)      Nuclear  (a.u.)        Total (a.u.)
 ------------------------------------------------------------------------------------

 L = 1.  Multiply by 2.5417464519 to convert [e a0] to [Debye]
 Dipole X            :          0.0000000            0.0000000            0.0000000
 Dipole Y            :          0.0000000            0.0000000            0.0000000
 Dipole Z            :         -0.1683533           -0.0051847           -0.1735380
 Magnitude           :                                                    0.1735380

 L = 2.  Multiply by 1.3450342976 to convert [e a0^2] to [Debye ang]
 Quadrupole XX       :         -9.6811463            0.0000000           -9.6811463
 Quadrupole XY       :          0.0000000            0.0000000            0.0000000
 Quadrupole XZ       :          0.0000000            0.0000000            0.0000000
 Quadrupole YY       :         -9.6811463            0.0000000           -9.6811463
 Quadrupole YZ       :          0.0000000            0.0000000            0.0000000
 Quadrupole ZZ       :        -37.2160064           24.9279359          -12.2880705
 Traceless XX        :          9.1782867           -8.3093120            0.8689747
 Traceless YY        :          9.1782867           -8.3093120            0.8689747
 Traceless ZZ        :        -18.3565734           16.6186240           -1.7379494

 ------------------------------------------------------------------------------------
  ==> Computing MBIS Charges <==

  Electron Count from Grid (Expected Number): 16.00000 (16.00000)
  Difference: -0.00000

  MBIS Charges: (a.u.)
   Center  Symbol  Z      Pop.       Charge
      1       O    8    8.497729   -0.497729
      2       N    7    7.502271   -0.502271

  MBIS Dipoles: [e a0]
   Center  Symbol  Z        X           Y           Z
      1       O    8   -0.000000   -0.000000    0.157835
      2       N    7   -0.000000   -0.000000   -0.239717

  MBIS Quadrupoles: [e a0^2]
   Center  Symbol  Z      XX        XY        XZ        YY        YZ        ZZ
      1       O    8   -4.5086    0.0000    0.0000   -4.5086   -0.0000   -4.4379
      2       N    7   -5.1726    0.0000    0.0000   -5.1726    0.0000   -5.1312

  MBIS Octupoles: [e a0^3]
   Center  Symbol  Z      XXX       XXY       XXZ       XYY       XYZ       XZZ       YYY       YYZ       YZZ       ZZZ
      1       O    8   -0.0000   -0.0000    0.1926   -0.0000    0.0000   -0.0000   -0.0000    0.1926   -0.0000    0.0439
      2       N    7   -0.0000   -0.0000   -0.2568   -0.0000   -0.0000    0.0000   -0.0000   -0.2568    0.0000    0.1738

  MBIS Radial Moments:
   Center  Symbol  Z      [a0^2]      [a0^3]      [a0^4]
      1       O    8   13.455072   26.791629   63.703546
      2       N    7   15.476316   35.351130   95.570950

  MBIS Valence Widths: [a0]
   Center  Symbol  Z     Width
      1       O    8    0.405713
      2       N    7    0.473323

*** tstop() called on Mac.lan at Sun Aug 10 17:46:58 2025
Module time:
	user time   =       3.63 seconds =       0.06 minutes
	system time =       1.96 seconds =       0.03 minutes
	total time  =          1 seconds =       0.02 minutes
Total time:
	user time   =      23.76 seconds =       0.40 minutes
	system time =       4.42 seconds =       0.07 minutes
	total time  =          3 seconds =       0.05 minutes

    Psi4 stopped on: Sunday, 10 August 2025 05:46PM
    Psi4 wall time for execution: 0:00:02.75

*** Psi4 exiting successfully. Buy a developer a beer!
