                               Psi4 1.9.1 release

  ==> Input File <==

--------------------------------------------------------------------------
molecule {
-1 3
C           0.000000           0.000000           0.000000
H           0.000000           0.000000           0.565081
}

set {
basis              cc-pvtz
reference          uks
maxiter            500
DAMPING_PERCENTAGE 1
E_CONVERGENCE      1.0E-8
D_CONVERGENCE      1.0E-8
DIIS_MAX_VECS      400
MBIS_MAXITER       8000
guess              read
}

E, wfn = energy('b3lyp', restart_file='last_wfn', return_wfn=True)
properties('b3lyp','MBIS_CHARGES', wfn=wfn)
wfn.to_file('last_wfn')
--------------------------------------------------------------------------

    Molecular point group: c2v
  Charge       = -1
  Multiplicity = 3
  Basis Set: CC-PVTZ
    Blend: CC-PVTZ
  Basis Set: (CC-PVTZ AUX)
    Blend: CC-PVTZ-JKFIT
  @DF-UKS Final Energy:   -37.92152536334080
    Total Energy =                        -37.9215253633407983
 Dipole X            :          0.0000000            0.0000000            0.0000000
 Dipole Y            :          0.0000000            0.0000000            0.0000000
 Dipole Z            :          0.4883923            0.4887023            0.9770946
 Magnitude           :                                                    0.9770946
    Molecular point group: c2v

    Geometry (in Angstrom), charge = -1, multiplicity = 3:

       Center              X                  Y                   Z               Mass
    ------------   -----------------  -----------------  -----------------  -----------------
         C            0.000000000000     0.000000000000    -0.043781552691    12.000000000000
         H            0.000000000000     0.000000000000     0.521299447309     1.007825032230

  Charge       = -1
  Multiplicity = 3
  Basis Set: CC-PVTZ
    Blend: CC-PVTZ
  Basis Set: (CC-PVTZ AUX)
    Blend: CC-PVTZ-JKFIT

    Orbital Energies [Eh]
    ---------------------

    Alpha Occupied:

       1A1    -9.836836     2A1    -0.438343     3A1     0.019952
       1B2     0.091365     1B1     0.091365

    Alpha Virtual:

       4A1     0.295435     5A1     0.529176     2B2     0.571389
       2B1     0.571389     6A1     0.728775     3B1     0.972155
       3B2     0.972155     1A2     0.972857     7A1     0.972857
       8A1     1.015437     9A1     1.340522     4B1     1.444361
       4B2     1.444361    10A1     2.130655     5B1     2.218956
       5B2     2.218956    11A1     2.512694    12A1     2.869881
       2A2     2.995070    13A1     2.995070     6B2     3.007766
       6B1     3.007766     7B1     3.116876     7B2     3.116876
      14A1     3.206139     3A2     3.206139    15A1     3.480079
       8B1     3.484241     8B2     3.484241    16A1     4.533330
      17A1     4.727471     4A2     4.727471     9B1     4.737885
       9B2     4.737885    18A1     6.014628    10B2     6.703211
      10B1     6.703211    19A1     8.723553    20A1    18.142004

    Beta Occupied:

       1A1    -9.813242     2A1    -0.372608     3A1     0.066612

    Beta Virtual:

       1B1     0.248636     1B2     0.248636     4A1     0.302527
       5A1     0.544752     2B2     0.640538     2B1     0.640538
       6A1     0.767174     3B1     1.010918     3B2     1.010918
       7A1     1.040502     1A2     1.049122     8A1     1.049122
       9A1     1.353826     4B1     1.463770     4B2     1.463770
      10A1     2.170225     5B1     2.296059     5B2     2.296059
      11A1     2.538571    12A1     2.931297     2A2     3.054274
      13A1     3.054274     6B2     3.102749     6B1     3.102749
       7B1     3.165102     7B2     3.165102     3A2     3.311180
      14A1     3.311181    15A1     3.509254     8B1     3.522582
       8B2     3.522582    16A1     4.558888     9B1     4.768015
       9B2     4.768015    17A1     4.775331     4A2     4.775331
      18A1     6.044185    10B2     6.738589    10B1     6.738589
      19A1     8.731661    20A1    18.168555

    Final Occupation by Irrep:
             A1    A2    B1    B2
    DOCC [     3,    0,    0,    0 ]
    SOCC [     0,    0,    1,    1 ]
    NA   [     3,    0,    1,    1 ]
    NB   [     3,    0,    0,    0 ]

  @DF-UKS Final Energy:   -37.92152536341086

   => Energetics <=

    Nuclear Repulsion Energy =              5.6187754747018559
    One-Electron Energy =                 -63.2796334559145492
    Two-Electron Energy =                  24.7505574380946385
    DFT Exchange-Correlation Energy =      -5.0112248202928029
    Empirical Dispersion Energy =           0.0000000000000000
    VV10 Nonlocal Energy =                  0.0000000000000000
    Total Energy =                        -37.9215253634108578

  UHF NO Occupations:
  HONO-2 :    3 A1 1.9974432
  HONO-1 :    1 B1 1.0000000
  HONO-0 :    1 B2 1.0000000
  LUNO+0 :    4 A1 0.0025568
  LUNO+1 :    5 A1 0.0001709
  LUNO+2 :    6 A1 0.0000012
  LUNO+3 :    2 B1 0.0000000

Computation Completed

Properties will be evaluated at   0.000000,   0.000000,   0.000000 [a0]

Properties computed using the B3LYP density matrix

 Multipole Moments:

 ------------------------------------------------------------------------------------
     Multipole            Electronic (a.u.)      Nuclear  (a.u.)        Total (a.u.)
 ------------------------------------------------------------------------------------

 L = 1.  Multiply by 2.5417464519 to convert [e a0] to [Debye]
 Dipole X            :          0.0000000            0.0000000            0.0000000
 Dipole Y            :          0.0000000            0.0000000            0.0000000
 Dipole Z            :          0.4883923            0.4887023            0.9770946
 Magnitude           :                                                    0.9770946

 L = 2.  Multiply by 1.3450342976 to convert [e a0^2] to [Debye ang]
 Quadrupole XX       :         -7.6281443            0.0000000           -7.6281443
 Quadrupole XY       :          0.0000000            0.0000000            0.0000000
 Quadrupole XZ       :          0.0000000            0.0000000            0.0000000
 Quadrupole YY       :         -7.6281443            0.0000000           -7.6281443
 Quadrupole YZ       :          0.0000000            0.0000000            0.0000000
 Quadrupole ZZ       :         -8.6275148            1.0115186           -7.6159962
 Traceless XX        :          0.3331235           -0.3371729           -0.0040494
 Traceless YY        :          0.3331235           -0.3371729           -0.0040494
 Traceless ZZ        :         -0.6662470            0.6743457            0.0080987

 ------------------------------------------------------------------------------------
  ==> Computing MBIS Charges <==

  Electron Count from Grid (Expected Number):  8.00000 ( 8.00000)
  Difference: -0.00000

  MBIS Charges: (a.u.)
   Center  Symbol  Z      Pop.       Charge
      1       C    6    7.151386   -1.151386
      2       H    1    0.848614    0.151386

  MBIS Dipoles: [e a0]
   Center  Symbol  Z        X           Y           Z
      1       C    6   -0.000000   -0.000000    0.715257
      2       H    1    0.000000   -0.000000    0.017445

  MBIS Quadrupoles: [e a0^2]
   Center  Symbol  Z      XX        XY        XZ        YY        YZ        ZZ
      1       C    6   -7.4127    0.0000    0.0000   -7.4127    0.0000   -7.4640
      2       H    1   -0.2154   -0.0000    0.0000   -0.2154    0.0000   -0.2070

  MBIS Octupoles: [e a0^3]
   Center  Symbol  Z      XXX       XXY       XXZ       XYY       XYZ       XZZ       YYY       YYZ       YZZ       ZZZ
      1       C    6    0.0000   -0.0000    1.6514   -0.0000   -0.0000    0.0000   -0.0000    1.6514   -0.0000    4.9236
      2       H    1   -0.0000    0.0000    0.0057   -0.0000   -0.0000   -0.0000    0.0000    0.0057   -0.0000    0.0142

  MBIS Radial Moments:
   Center  Symbol  Z      [a0^2]      [a0^3]      [a0^4]
      1       C    6   22.289539   63.012242   208.548907
      2       H    1    0.637793    0.780418    1.148715

  MBIS Valence Widths: [a0]
   Center  Symbol  Z     Width
      1       C    6    0.588628
      2       H    1    0.253759

*** tstop() called on Mac.lan at Sun Aug 10 17:35:27 2025
Module time:
	user time   =       3.60 seconds =       0.06 minutes
	system time =       2.16 seconds =       0.04 minutes
	total time  =          1 seconds =       0.02 minutes
Total time:
	user time   =      13.14 seconds =       0.22 minutes
	system time =       4.65 seconds =       0.08 minutes
	total time  =          2 seconds =       0.03 minutes

    Psi4 stopped on: Sunday, 10 August 2025 05:35PM
    Psi4 wall time for execution: 0:00:01.73

*** Psi4 exiting successfully. Buy a developer a beer!
