                               Psi4 1.9.1 release

  ==> Input File <==

--------------------------------------------------------------------------
molecule {
-1 1
O           0.000000           0.000000           0.000000
H           0.000000           0.000000           1.228690
}

set {
basis              cc-pvtz
reference          uks
maxiter            500
DAMPING_PERCENTAGE 1
E_CONVERGENCE      1.0E-8
D_CONVERGENCE      1.0E-8
DIIS_MAX_VECS      400
MBIS_MAXITER       8000
guess              read
}

E, wfn = energy('b3lyp', restart_file='last_wfn', return_wfn=True)
properties('b3lyp','MBIS_CHARGES', wfn=wfn)
wfn.to_file('last_wfn')
--------------------------------------------------------------------------

    Molecular point group: c2v
  Charge       = -1
  Multiplicity = 1
  Basis Set: CC-PVTZ
    Blend: CC-PVTZ
  Basis Set: (CC-PVTZ AUX)
    Blend: CC-PVTZ-JKFIT
  @DF-UKS Final Energy:   -75.75983167870106
    Total Energy =                        -75.7598316787010475
 Dipole X            :          0.0000000            0.0000000            0.0000000
 Dipole Y            :          0.0000000            0.0000000            0.0000000
 Dipole Z            :         -0.9576503            1.0832338            0.1255835
 Magnitude           :                                                    0.1255835
    Molecular point group: c2v

    Geometry (in Angstrom), charge = -1, multiplicity = 1:

       Center              X                  Y                   Z               Mass
    ------------   -----------------  -----------------  -----------------  -----------------
         O            0.000000000000     0.000000000000    -0.072829706518    15.994914619570
         H            0.000000000000     0.000000000000     1.155860293482     1.007825032230

  Charge       = -1
  Multiplicity = 1
  Basis Set: CC-PVTZ
    Blend: CC-PVTZ
  Basis Set: (CC-PVTZ AUX)
    Blend: CC-PVTZ-JKFIT

    Orbital Energies [Eh]
    ---------------------

    Alpha Occupied:

       1A1   -18.716770     2A1    -0.492527     3A1    -0.022616
       1B2     0.102345     1B1     0.102345

    Alpha Virtual:

       4A1     0.283574     5A1     0.588790     6A1     0.884212
       2B2     0.900948     2B1     0.900948     3B2     1.023017
       3B1     1.023017     7A1     1.270168     8A1     1.418723
       1A2     1.875445     9A1     1.875445     4B2     2.035296
       4B1     2.035296    10A1     2.456480    11A1     2.661551
       2A2     3.520445    12A1     3.520446     5B1     3.649875
       5B2     3.649875    13A1     3.718038     6B1     4.012762
       6B2     4.012762     7B1     4.205317     7B2     4.205317
      14A1     4.241095    15A1     5.189423     8B1     5.570120
       8B2     5.570120     3A2     5.613381    16A1     5.613381
       9B1     6.089920     9B2     6.089920    17A1     6.455258
      18A1     6.641007     4A2     6.641009    10B2     6.885424
      10B1     6.885424    19A1     7.301635    20A1     8.653512

    Beta Occupied:

       1A1   -18.716770     2A1    -0.492527     3A1    -0.022616
       1B2     0.102345     1B1     0.102345

    Beta Virtual:

       4A1     0.283574     5A1     0.588790     6A1     0.884212
       2B2     0.900948     2B1     0.900948     3B2     1.023017
       3B1     1.023017     7A1     1.270168     8A1     1.418723
       1A2     1.875445     9A1     1.875445     4B2     2.035296
       4B1     2.035296    10A1     2.456480    11A1     2.661551
       2A2     3.520445    12A1     3.520446     5B1     3.649875
       5B2     3.649875    13A1     3.718038     6B1     4.012762
       6B2     4.012762     7B1     4.205317     7B2     4.205317
      14A1     4.241095    15A1     5.189423     8B1     5.570120
       8B2     5.570120     3A2     5.613381    16A1     5.613381
       9B1     6.089920     9B2     6.089920    17A1     6.455258
      18A1     6.641007     4A2     6.641009    10B2     6.885424
      10B1     6.885424    19A1     7.301635    20A1     8.653512

    Final Occupation by Irrep:
             A1    A2    B1    B2
    DOCC [     3,    0,    1,    1 ]
    SOCC [     0,    0,    0,    0 ]
    NA   [     3,    0,    1,    1 ]
    NB   [     3,    0,    1,    1 ]

  @DF-UKS Final Energy:   -75.75983167880149

   => Energetics <=

    Nuclear Repulsion Energy =              3.4454725645687687
    One-Electron Energy =                -115.0524546245050885
    Two-Electron Energy =                  43.2265633158664073
    DFT Exchange-Correlation Energy =      -7.3794129347315813
    Empirical Dispersion Energy =           0.0000000000000000
    VV10 Nonlocal Energy =                  0.0000000000000000
    Total Energy =                        -75.7598316788014898

  UHF NO Occupations:
  HONO-2 :    1 B2 2.0000000
  HONO-1 :    1 B1 2.0000000
  HONO-0 :    3 A1 2.0000000
  LUNO+0 :    4 A1 0.0000000
  LUNO+1 :    5 A1 0.0000000
  LUNO+2 :    6 A1 0.0000000
  LUNO+3 :    7 A1 0.0000000

Computation Completed

Properties will be evaluated at   0.000000,   0.000000,   0.000000 [a0]

Properties computed using the B3LYP density matrix

 Multipole Moments:

 ------------------------------------------------------------------------------------
     Multipole            Electronic (a.u.)      Nuclear  (a.u.)        Total (a.u.)
 ------------------------------------------------------------------------------------

 L = 1.  Multiply by 2.5417464519 to convert [e a0] to [Debye]
 Dipole X            :          0.0000000            0.0000000            0.0000000
 Dipole Y            :          0.0000000            0.0000000            0.0000000
 Dipole Z            :         -0.9576503            1.0832338            0.1255835
 Magnitude           :                                                    0.1255835

 L = 2.  Multiply by 1.3450342976 to convert [e a0^2] to [Debye ang]
 Quadrupole XX       :         -6.5754552            0.0000000           -6.5754552
 Quadrupole XY       :          0.0000000            0.0000000            0.0000000
 Quadrupole XZ       :          0.0000000            0.0000000            0.0000000
 Quadrupole YY       :         -6.5754552            0.0000000           -6.5754552
 Quadrupole YZ       :          0.0000000            0.0000000            0.0000000
 Quadrupole ZZ       :        -10.6747672            4.9225213           -5.7522459
 Traceless XX        :          1.3664373           -1.6408404           -0.2744031
 Traceless YY        :          1.3664373           -1.6408404           -0.2744031
 Traceless ZZ        :         -2.7328746            3.2816808            0.5488062

 ------------------------------------------------------------------------------------
  ==> Computing MBIS Charges <==

  Electron Count from Grid (Expected Number): 10.00000 (10.00000)
  Difference:  0.00000

  MBIS Charges: (a.u.)
   Center  Symbol  Z      Pop.       Charge
      1       O    8    9.032593   -1.032593
      2       H    1    0.967407    0.032593

  MBIS Dipoles: [e a0]
   Center  Symbol  Z        X           Y           Z
      1       O    8   -0.000000    0.000000   -0.103664
      2       H    1   -0.000000   -0.000000    0.015943

  MBIS Quadrupoles: [e a0^2]
   Center  Symbol  Z      XX        XY        XZ        YY        YZ        ZZ
      1       O    8   -5.6193    0.0000   -0.0000   -5.6193   -0.0000   -5.0519
      2       H    1   -0.9561    0.0000   -0.0000   -0.9561    0.0000   -0.9345

  MBIS Octupoles: [e a0^3]
   Center  Symbol  Z      XXX       XXY       XXZ       XYY       XYZ       XZZ       YYY       YYZ       YZZ       ZZZ
      1       O    8   -0.0000   -0.0000   -0.1968    0.0000    0.0000    0.0000   -0.0000   -0.1968    0.0000   -0.9643
      2       H    1    0.0000    0.0000    0.0029    0.0000   -0.0000   -0.0000   -0.0000    0.0029   -0.0000   -0.0016

  MBIS Radial Moments:
   Center  Symbol  Z      [a0^2]      [a0^3]      [a0^4]
      1       O    8   16.290519   34.379049   86.074318
      2       H    1    2.846759    7.014471   20.408493

  MBIS Valence Widths: [a0]
   Center  Symbol  Z     Width
      1       O    8    0.430970
      2       H    1    0.493970

*** tstop() called on Mac.lan at Sun Aug 10 17:38:20 2025
Module time:
	user time   =       3.53 seconds =       0.06 minutes
	system time =       1.57 seconds =       0.03 minutes
	total time  =          0 seconds =       0.00 minutes
Total time:
	user time   =      13.51 seconds =       0.23 minutes
	system time =       3.80 seconds =       0.06 minutes
	total time  =          2 seconds =       0.03 minutes

    Psi4 stopped on: Sunday, 10 August 2025 05:38PM
    Psi4 wall time for execution: 0:00:01.68

*** Psi4 exiting successfully. Buy a developer a beer!
