                               Psi4 1.9.1 release

  ==> Input File <==

--------------------------------------------------------------------------
molecule {
-1 1
N           0.000000           0.000000           0.000000
C           0.000000           0.000000           0.684412
}

set {
basis              cc-pvtz
reference          uks
maxiter            500
DAMPING_PERCENTAGE 1
E_CONVERGENCE      1.0E-8
D_CONVERGENCE      1.0E-8
DIIS_MAX_VECS      400
MBIS_MAXITER       8000
guess              read
}

E, wfn = energy('b3lyp', restart_file='last_wfn', return_wfn=True)
properties('b3lyp','MBIS_CHARGES', wfn=wfn)
wfn.to_file('last_wfn')
--------------------------------------------------------------------------

    Molecular point group: c2v
  Charge       = -1
  Multiplicity = 1
  Basis Set: CC-PVTZ
    Blend: CC-PVTZ
  Basis Set: (CC-PVTZ AUX)
    Blend: CC-PVTZ-JKFIT
  @DF-UKS Final Energy:   -91.25828921628043
    Total Energy =                        -91.2582892162804313
 Dipole X            :          0.0000000            0.0000000            0.0000000
 Dipole Y            :          0.0000000            0.0000000            0.0000000
 Dipole Z            :         -0.4956714            0.0009174           -0.4947540
 Magnitude           :                                                    0.4947540
    Molecular point group: c2v

    Geometry (in Angstrom), charge = -1, multiplicity = 1:

       Center              X                  Y                   Z               Mass
    ------------   -----------------  -----------------  -----------------  -----------------
         N            0.000000000000     0.000000000000    -0.315845118873    14.003074004430
         C            0.000000000000     0.000000000000     0.368566881127    12.000000000000

  Charge       = -1
  Multiplicity = 1
  Basis Set: CC-PVTZ
    Blend: CC-PVTZ
  Basis Set: (CC-PVTZ AUX)
    Blend: CC-PVTZ-JKFIT

    Orbital Energies [Eh]
    ---------------------

    Alpha Occupied:

       1A1   -13.924562     2A1    -9.800212     3A1    -0.586311
       1B2    -0.213213     1B1    -0.213213     4A1    -0.016110
       5A1     0.041563

    Alpha Virtual:

       2B1     0.420677     2B2     0.420677     6A1     0.433370
       7A1     0.545050     3B1     0.592954     3B2     0.592954
       8A1     0.757835     4B1     0.908619     4B2     0.908619
       1A2     0.959472     9A1     0.959472    10A1     1.196621
       5B1     1.396720     5B2     1.396720    11A1     1.486790
       2A2     1.616110    12A1     1.616110     6B1     1.761099
       6B2     1.761099    13A1     1.880411     7B2     2.380521
       7B1     2.380521    14A1     2.629812     8B1     2.989094
       8B2     2.989094    15A1     3.057378     3A2     3.207711
      16A1     3.207711     9B1     3.348786     9B2     3.348786
      17A1     3.413658     4A2     3.436226    18A1     3.436226
      10B1     3.813441    10B2     3.813441    19A1     4.067459
      11B1     4.382912    11B2     4.382912    12B2     4.585275
      12B1     4.585275     5A2     4.875131    20A1     4.875131
      21A1     5.226035    13B2     5.828380    13B1     5.828380
       6A2     6.098313    22A1     6.098314    23A1     6.321466
      14B1     7.280502    14B2     7.280502    24A1     7.666104
      25A1     8.192605    26A1    20.175144

    Beta Occupied:

       1A1   -13.924562     2A1    -9.800212     3A1    -0.586311
       1B2    -0.213213     1B1    -0.213213     4A1    -0.016110
       5A1     0.041563

    Beta Virtual:

       2B1     0.420677     2B2     0.420677     6A1     0.433370
       7A1     0.545050     3B1     0.592954     3B2     0.592954
       8A1     0.757835     4B1     0.908619     4B2     0.908619
       1A2     0.959472     9A1     0.959472    10A1     1.196621
       5B1     1.396720     5B2     1.396720    11A1     1.486790
       2A2     1.616110    12A1     1.616110     6B1     1.761099
       6B2     1.761099    13A1     1.880411     7B2     2.380521
       7B1     2.380521    14A1     2.629812     8B1     2.989094
       8B2     2.989094    15A1     3.057378     3A2     3.207711
      16A1     3.207711     9B1     3.348786     9B2     3.348786
      17A1     3.413658     4A2     3.436226    18A1     3.436226
      10B1     3.813441    10B2     3.813441    19A1     4.067459
      11B1     4.382912    11B2     4.382912    12B2     4.585275
      12B1     4.585275     5A2     4.875131    20A1     4.875131
      21A1     5.226035    13B2     5.828380    13B1     5.828380
       6A2     6.098313    22A1     6.098314    23A1     6.321466
      14B1     7.280502    14B2     7.280502    24A1     7.666104
      25A1     8.192605    26A1    20.175144

    Final Occupation by Irrep:
             A1    A2    B1    B2
    DOCC [     5,    0,    1,    1 ]
    SOCC [     0,    0,    0,    0 ]
    NA   [     5,    0,    1,    1 ]
    NB   [     5,    0,    1,    1 ]

  @DF-UKS Final Energy:   -91.25828921981713

   => Energetics <=

    Nuclear Repulsion Energy =             32.4737772688672948
    One-Electron Energy =                -190.2989706789981597
    Two-Electron Energy =                  77.3466453402606788
    DFT Exchange-Correlation Energy =     -10.7797411499469575
    Empirical Dispersion Energy =           0.0000000000000000
    VV10 Nonlocal Energy =                  0.0000000000000000
    Total Energy =                        -91.2582892198171294

  UHF NO Occupations:
  HONO-2 :    3 A1 2.0000000
  HONO-1 :    4 A1 2.0000000
  HONO-0 :    5 A1 2.0000000
  LUNO+0 :    6 A1 0.0000000
  LUNO+1 :    7 A1 0.0000000
  LUNO+2 :    8 A1 0.0000000
  LUNO+3 :    9 A1 0.0000000

Computation Completed

Properties will be evaluated at   0.000000,   0.000000,   0.000000 [a0]

Properties computed using the B3LYP density matrix

 Multipole Moments:

 ------------------------------------------------------------------------------------
     Multipole            Electronic (a.u.)      Nuclear  (a.u.)        Total (a.u.)
 ------------------------------------------------------------------------------------

 L = 1.  Multiply by 2.5417464519 to convert [e a0] to [Debye]
 Dipole X            :          0.0000000            0.0000000            0.0000000
 Dipole Y            :          0.0000000            0.0000000            0.0000000
 Dipole Z            :         -0.4956714            0.0009174           -0.4947540
 Magnitude           :                                                    0.4947540

 L = 2.  Multiply by 1.3450342976 to convert [e a0^2] to [Debye ang]
 Quadrupole XX       :         -8.7418926            0.0000000           -8.7418926
 Quadrupole XY       :          0.0000000            0.0000000            0.0000000
 Quadrupole XZ       :          0.0000000            0.0000000            0.0000000
 Quadrupole YY       :         -8.7418926            0.0000000           -8.7418926
 Quadrupole YZ       :          0.0000000            0.0000000            0.0000000
 Quadrupole ZZ       :        -18.0566216            5.4042933          -12.6523284
 Traceless XX        :          3.1049097           -1.8014311            1.3034786
 Traceless YY        :          3.1049097           -1.8014311            1.3034786
 Traceless ZZ        :         -6.2098193            3.6028622           -2.6069572

 ------------------------------------------------------------------------------------
  ==> Computing MBIS Charges <==

  Electron Count from Grid (Expected Number): 14.00000 (14.00000)
  Difference: -0.00000

  MBIS Charges: (a.u.)
   Center  Symbol  Z      Pop.       Charge
      1       N    7    7.338862   -0.338862
      2       C    6    6.661137   -0.661137

  MBIS Dipoles: [e a0]
   Center  Symbol  Z        X           Y           Z
      1       N    7   -0.000000    0.000000    0.122139
      2       C    6   -0.000000   -0.000000   -0.358672

  MBIS Quadrupoles: [e a0^2]
   Center  Symbol  Z      XX        XY        XZ        YY        YZ        ZZ
      1       N    7   -3.5871    0.0000    0.0000   -3.5871   -0.0000   -4.5550
      2       C    6   -5.1548    0.0000   -0.0000   -5.1548    0.0000   -7.0105

  MBIS Octupoles: [e a0^3]
   Center  Symbol  Z      XXX       XXY       XXZ       XYY       XYZ       XZZ       YYY       YYZ       YZZ       ZZZ
      1       N    7   -0.0000   -0.0000    0.3399   -0.0000   -0.0000   -0.0000   -0.0000    0.3399    0.0000    1.2871
      2       C    6   -0.0000   -0.0000   -0.8721   -0.0000    0.0000   -0.0000    0.0000   -0.8721    0.0000   -2.0256

  MBIS Radial Moments:
   Center  Symbol  Z      [a0^2]      [a0^3]      [a0^4]
      1       N    7   11.729143   24.176235   60.304759
      2       C    6   17.320113   46.615669   148.836119

  MBIS Valence Widths: [a0]
   Center  Symbol  Z     Width
      1       N    7    0.411422
      2       C    6    0.538266

*** tstop() called on Mac.lan at Sun Aug 10 17:39:42 2025
Module time:
	user time   =       4.08 seconds =       0.07 minutes
	system time =       2.51 seconds =       0.04 minutes
	total time  =          1 seconds =       0.02 minutes
Total time:
	user time   =      15.57 seconds =       0.26 minutes
	system time =       5.06 seconds =       0.08 minutes
	total time  =          2 seconds =       0.03 minutes

    Psi4 stopped on: Sunday, 10 August 2025 05:39PM
    Psi4 wall time for execution: 0:00:02.00

*** Psi4 exiting successfully. Buy a developer a beer!
