                               Psi4 1.9.1 release

  ==> Input File <==

--------------------------------------------------------------------------
molecule {
-1 1
N           0.000000           0.000000           0.000000
C           0.000000           0.000000           1.590990
}

set {
basis              cc-pvtz
reference          uks
maxiter            500
DAMPING_PERCENTAGE 1
E_CONVERGENCE      1.0E-8
D_CONVERGENCE      1.0E-8
DIIS_MAX_VECS      400
MBIS_MAXITER       8000
guess              read
}

E, wfn = energy('b3lyp', restart_file='last_wfn', return_wfn=True)
properties('b3lyp','MBIS_CHARGES', wfn=wfn)
wfn.to_file('last_wfn')
--------------------------------------------------------------------------

    Molecular point group: c2v
  Charge       = -1
  Multiplicity = 1
  Basis Set: CC-PVTZ
    Blend: CC-PVTZ
  Basis Set: (CC-PVTZ AUX)
    Blend: CC-PVTZ-JKFIT
  @DF-UKS Final Energy:   -92.72589788226128
    Total Energy =                        -92.7258978822612789
 Dipole X            :          0.0000000            0.0000000            0.0000000
 Dipole Y            :          0.0000000            0.0000000            0.0000000
 Dipole Z            :         -0.0859920            0.0021325           -0.0838595
 Magnitude           :                                                    0.0838595
    Molecular point group: c2v

    Geometry (in Angstrom), charge = -1, multiplicity = 1:

       Center              X                  Y                   Z               Mass
    ------------   -----------------  -----------------  -----------------  -----------------
         N            0.000000000000     0.000000000000    -0.734216269844    14.003074004430
         C            0.000000000000     0.000000000000     0.856773730156    12.000000000000

  Charge       = -1
  Multiplicity = 1
  Basis Set: CC-PVTZ
    Blend: CC-PVTZ
  Basis Set: (CC-PVTZ AUX)
    Blend: CC-PVTZ-JKFIT

    Orbital Energies [Eh]
    ---------------------

    Alpha Occupied:

       1A1   -14.081648     2A1    -9.993297     3A1    -0.480463
       4A1    -0.209053     5A1    -0.022007     1B2    -0.001959
       1B1    -0.001959

    Alpha Virtual:

       2B1     0.200664     2B2     0.200664     6A1     0.375469
       3B1     0.560786     3B2     0.560786     7A1     0.570503
       8A1     0.600586     9A1     0.717538     4B2     0.767259
       4B1     0.767259     1A2     0.929454    10A1     0.929454
       5B1     1.014751     5B2     1.014751    11A1     1.148237
      12A1     1.333632    13A1     1.375471     2A2     1.375471
       6B1     1.655046     6B2     1.655046    14A1     1.848928
       7B1     2.267804     7B2     2.267804    15A1     2.504196
       8B1     2.930503     8B2     2.930503     9B2     2.958099
       9B1     2.958099     3A2     2.958178    16A1     2.958179
      17A1     3.055660    18A1     3.237723     4A2     3.237724
      10B1     3.254380    10B2     3.254380    19A1     3.471159
      11B1     3.478157    11B2     3.478157    20A1     3.545962
      12B1     4.191805    12B2     4.191805    21A1     4.311169
       5A2     4.311170    22A1     4.375358    13B1     4.663617
      13B2     4.663617    23A1     4.769937     6A2     4.769939
      24A1     5.012123    14B1     5.160728    14B2     5.160728
      25A1     5.839299    26A1     7.242354

    Beta Occupied:

       1A1   -14.081648     2A1    -9.993297     3A1    -0.480463
       4A1    -0.209053     5A1    -0.022007     1B2    -0.001959
       1B1    -0.001959

    Beta Virtual:

       2B1     0.200664     2B2     0.200664     6A1     0.375469
       3B1     0.560786     3B2     0.560786     7A1     0.570503
       8A1     0.600586     9A1     0.717538     4B2     0.767259
       4B1     0.767259     1A2     0.929454    10A1     0.929454
       5B1     1.014751     5B2     1.014751    11A1     1.148237
      12A1     1.333632    13A1     1.375471     2A2     1.375471
       6B1     1.655046     6B2     1.655046    14A1     1.848928
       7B1     2.267804     7B2     2.267804    15A1     2.504196
       8B1     2.930503     8B2     2.930503     9B2     2.958099
       9B1     2.958099     3A2     2.958178    16A1     2.958179
      17A1     3.055660    18A1     3.237723     4A2     3.237724
      10B1     3.254380    10B2     3.254380    19A1     3.471159
      11B1     3.478157    11B2     3.478157    20A1     3.545962
      12B1     4.191805    12B2     4.191805    21A1     4.311169
       5A2     4.311170    22A1     4.375358    13B1     4.663617
      13B2     4.663617    23A1     4.769937     6A2     4.769939
      24A1     5.012123    14B1     5.160728    14B2     5.160728
      25A1     5.839299    26A1     7.242354

    Final Occupation by Irrep:
             A1    A2    B1    B2
    DOCC [     5,    0,    1,    1 ]
    SOCC [     0,    0,    0,    0 ]
    NA   [     5,    0,    1,    1 ]
    NB   [     5,    0,    1,    1 ]

  @DF-UKS Final Energy:   -92.72589788218265

   => Energetics <=

    Nuclear Repulsion Energy =             13.9695679093771830
    One-Electron Energy =                -156.6991195179714964
    Two-Electron Energy =                  59.8695351588633145
    DFT Exchange-Correlation Energy =      -9.8658814324516388
    Empirical Dispersion Energy =           0.0000000000000000
    VV10 Nonlocal Energy =                  0.0000000000000000
    Total Energy =                        -92.7258978821826361

  UHF NO Occupations:
  HONO-2 :    3 A1 2.0000000
  HONO-1 :    4 A1 2.0000000
  HONO-0 :    5 A1 2.0000000
  LUNO+0 :    6 A1 0.0000000
  LUNO+1 :    7 A1 0.0000000
  LUNO+2 :    8 A1 0.0000000
  LUNO+3 :    9 A1 0.0000000

Computation Completed

Properties will be evaluated at   0.000000,   0.000000,   0.000000 [a0]

Properties computed using the B3LYP density matrix

 Multipole Moments:

 ------------------------------------------------------------------------------------
     Multipole            Electronic (a.u.)      Nuclear  (a.u.)        Total (a.u.)
 ------------------------------------------------------------------------------------

 L = 1.  Multiply by 2.5417464519 to convert [e a0] to [Debye]
 Dipole X            :          0.0000000            0.0000000            0.0000000
 Dipole Y            :          0.0000000            0.0000000            0.0000000
 Dipole Z            :         -0.0859920            0.0021325           -0.0838595
 Magnitude           :                                                    0.0838595

 L = 2.  Multiply by 1.3450342976 to convert [e a0^2] to [Debye ang]
 Quadrupole XX       :        -11.0707124            0.0000000          -11.0707124
 Quadrupole XY       :          0.0000000            0.0000000            0.0000000
 Quadrupole XZ       :          0.0000000            0.0000000            0.0000000
 Quadrupole YY       :        -11.0707124            0.0000000          -11.0707124
 Quadrupole YZ       :          0.0000000            0.0000000            0.0000000
 Quadrupole ZZ       :        -43.9025702           29.2037470          -14.6988232
 Traceless XX        :         10.9439526           -9.7345823            1.2093703
 Traceless YY        :         10.9439526           -9.7345823            1.2093703
 Traceless ZZ        :        -21.8879052           19.4691647           -2.4187405

 ------------------------------------------------------------------------------------
  ==> Computing MBIS Charges <==

  Electron Count from Grid (Expected Number): 14.00000 (14.00000)
  Difference: -0.00000

  MBIS Charges: (a.u.)
   Center  Symbol  Z      Pop.       Charge
      1       N    7    7.570079   -0.570079
      2       C    6    6.429921   -0.429921

  MBIS Dipoles: [e a0]
   Center  Symbol  Z        X           Y           Z
      1       N    7   -0.000000   -0.000000    0.002825
      2       C    6   -0.000000    0.000000   -0.181579

  MBIS Quadrupoles: [e a0^2]
   Center  Symbol  Z      XX        XY        XZ        YY        YZ        ZZ
      1       N    7   -5.2726    0.0000   -0.0000   -5.2726   -0.0000   -5.4918
      2       C    6   -5.7981    0.0000    0.0000   -5.7981    0.0000   -6.3867

  MBIS Octupoles: [e a0^3]
   Center  Symbol  Z      XXX       XXY       XXZ       XYY       XYZ       XZZ       YYY       YYZ       YZZ       ZZZ
      1       N    7   -0.0000   -0.0000   -0.1718   -0.0000    0.0000    0.0000    0.0000   -0.1718    0.0000   -0.2813
      2       C    6   -0.0000   -0.0000    0.0283   -0.0000   -0.0000   -0.0000    0.0000    0.0283    0.0000   -0.1316

  MBIS Radial Moments:
   Center  Symbol  Z      [a0^2]      [a0^3]      [a0^4]
      1       N    7   16.037005   37.070407   101.637809
      2       C    6   17.983000   48.466232   153.712203

  MBIS Valence Widths: [a0]
   Center  Symbol  Z     Width
      1       N    7    0.479460
      2       C    6    0.568902

*** tstop() called on Mac.lan at Sun Aug 10 17:41:04 2025
Module time:
	user time   =       3.86 seconds =       0.06 minutes
	system time =       2.17 seconds =       0.04 minutes
	total time  =          1 seconds =       0.02 minutes
Total time:
	user time   =      18.17 seconds =       0.30 minutes
	system time =       4.61 seconds =       0.08 minutes
	total time  =          3 seconds =       0.05 minutes

    Psi4 stopped on: Sunday, 10 August 2025 05:41PM
    Psi4 wall time for execution: 0:00:02.21

*** Psi4 exiting successfully. Buy a developer a beer!
