                               Psi4 1.9.1 release

  ==> Input File <==

--------------------------------------------------------------------------
molecule {
-1 3
C           0.000000           0.000000           0.000000
H           0.000000           0.000000           1.726963
}

set {
basis              cc-pvtz
reference          uks
maxiter            500
DAMPING_PERCENTAGE 1
E_CONVERGENCE      1.0E-8
D_CONVERGENCE      1.0E-8
DIIS_MAX_VECS      400
MBIS_MAXITER       8000
guess              read
}

E, wfn = energy('b3lyp', restart_file='last_wfn', return_wfn=True)
properties('b3lyp','MBIS_CHARGES', wfn=wfn)
wfn.to_file('last_wfn')
--------------------------------------------------------------------------

    Molecular point group: c2v
  Charge       = -1
  Multiplicity = 3
  Basis Set: CC-PVTZ
    Blend: CC-PVTZ
  Basis Set: (CC-PVTZ AUX)
    Blend: CC-PVTZ-JKFIT
  @DF-UKS Final Energy:   -38.48283561760057
    Total Energy =                        -38.4828356176005713
 Dipole X            :          0.0000000            0.0000000            0.0000000
 Dipole Y            :          0.0000000            0.0000000            0.0000000
 Dipole Z            :         -2.1804829            1.4935396           -0.6869434
 Magnitude           :                                                    0.6869434
    Molecular point group: c2v

    Geometry (in Angstrom), charge = -1, multiplicity = 3:

       Center              X                  Y                   Z               Mass
    ------------   -----------------  -----------------  -----------------  -----------------
         C            0.000000000000     0.000000000000    -0.133802271850    12.000000000000
         H            0.000000000000     0.000000000000     1.593160728150     1.007825032230

  Charge       = -1
  Multiplicity = 3
  Basis Set: CC-PVTZ
    Blend: CC-PVTZ
  Basis Set: (CC-PVTZ AUX)
    Blend: CC-PVTZ-JKFIT

    Orbital Energies [Eh]
    ---------------------

    Alpha Occupied:

       1A1    -9.948957     2A1    -0.272405     3A1     0.001813
       1B2     0.053987     1B1     0.053987

    Alpha Virtual:

       4A1     0.228822     5A1     0.503741     2B2     0.549519
       2B1     0.549519     6A1     0.569968     7A1     0.710123
       3B1     0.823054     3B2     0.823054     1A2     0.941620
       8A1     0.941620     9A1     1.050790     4B1     1.150659
       4B2     1.150659    10A1     1.456710     5B1     2.223601
       5B2     2.223601    11A1     2.326760    12A1     2.691425
       6B2     2.879479     6B1     2.879479    13A1     2.911609
      14A1     2.950679     2A2     2.950680     7B2     2.957536
       7B1     2.957536    15A1     3.208121     3A2     3.208122
       8B1     3.255623     8B2     3.255623    16A1     3.483004
      17A1     3.533747     4A2     3.533765     9B2     3.810802
       9B1     3.810802    18A1     3.968720    10B1     4.073220
      10B2     4.073220    19A1     4.255965    20A1     5.044569

    Beta Occupied:

       1A1    -9.923004     2A1    -0.178569     3A1     0.013730

    Beta Virtual:

       1B2     0.219053     1B1     0.219053     4A1     0.250505
       5A1     0.501041     6A1     0.591478     2B2     0.619451
       2B1     0.619451     7A1     0.758155     3B1     0.839269
       3B2     0.839269     8A1     1.018049     1A2     1.018049
       9A1     1.068590     4B1     1.176191     4B2     1.176191
      10A1     1.468166     5B1     2.304549     5B2     2.304549
      11A1     2.344676    12A1     2.690805     6B2     2.918844
       6B1     2.918844    13A1     2.943810    14A1     3.016829
       2A2     3.016830     7B2     3.054211     7B1     3.054211
       8B1     3.324415     8B2     3.324415    15A1     3.325424
       3A2     3.325426    16A1     3.516351    17A1     3.531297
       4A2     3.531314     9B2     3.809666     9B1     3.809666
      18A1     4.012372    10B1     4.067450    10B2     4.067450
      19A1     4.254845    20A1     5.056534

    Final Occupation by Irrep:
             A1    A2    B1    B2
    DOCC [     3,    0,    0,    0 ]
    SOCC [     0,    0,    1,    1 ]
    NA   [     3,    0,    1,    1 ]
    NB   [     3,    0,    0,    0 ]

  @DF-UKS Final Energy:   -38.48283561720746

   => Energetics <=

    Nuclear Repulsion Energy =              1.8385241976927127
    One-Electron Energy =                 -57.0731380376812041
    Two-Electron Energy =                  21.4226786740423165
    DFT Exchange-Correlation Energy =      -4.6709004512612902
    Empirical Dispersion Energy =           0.0000000000000000
    VV10 Nonlocal Energy =                  0.0000000000000000
    Total Energy =                        -38.4828356172074635

  UHF NO Occupations:
  HONO-2 :    3 A1 1.9936575
  HONO-1 :    1 B2 1.0000000
  HONO-0 :    1 B1 1.0000000
  LUNO+0 :    4 A1 0.0063425
  LUNO+1 :    5 A1 0.0011675
  LUNO+2 :    6 A1 0.0000011
  LUNO+3 :    2 B2 0.0000000

Computation Completed

Properties will be evaluated at   0.000000,   0.000000,   0.000000 [a0]

Properties computed using the B3LYP density matrix

 Multipole Moments:

 ------------------------------------------------------------------------------------
     Multipole            Electronic (a.u.)      Nuclear  (a.u.)        Total (a.u.)
 ------------------------------------------------------------------------------------

 L = 1.  Multiply by 2.5417464519 to convert [e a0] to [Debye]
 Dipole X            :          0.0000000            0.0000000            0.0000000
 Dipole Y            :          0.0000000            0.0000000            0.0000000
 Dipole Z            :         -2.1804829            1.4935396           -0.6869434
 Magnitude           :                                                    0.6869434

 L = 2.  Multiply by 1.3450342976 to convert [e a0^2] to [Debye ang]
 Quadrupole XX       :         -8.3238429            0.0000000           -8.3238429
 Quadrupole XY       :          0.0000000            0.0000000            0.0000000
 Quadrupole XZ       :          0.0000000            0.0000000            0.0000000
 Quadrupole YY       :         -8.3238429            0.0000000           -8.3238429
 Quadrupole YZ       :          0.0000000            0.0000000            0.0000000
 Quadrupole ZZ       :        -20.8391459            9.4475355          -11.3916103
 Traceless XX        :          4.1717677           -3.1491785            1.0225892
 Traceless YY        :          4.1717677           -3.1491785            1.0225892
 Traceless ZZ        :         -8.3435353            6.2983570           -2.0451783

 ------------------------------------------------------------------------------------
  ==> Computing MBIS Charges <==

  Electron Count from Grid (Expected Number):  8.00000 ( 8.00000)
  Difference: -0.00000

  MBIS Charges: (a.u.)
   Center  Symbol  Z      Pop.       Charge
      1       C    6    6.667679   -0.667679
      2       H    1    1.332321   -0.332321

  MBIS Dipoles: [e a0]
   Center  Symbol  Z        X           Y           Z
      1       C    6   -0.000000   -0.000000    0.161827
      2       H    1   -0.000000   -0.000000   -0.017095

  MBIS Quadrupoles: [e a0^2]
   Center  Symbol  Z      XX        XY        XZ        YY        YZ        ZZ
      1       C    6   -6.6404    0.0000    0.0000   -6.6404    0.0000   -6.4553
      2       H    1   -1.6835    0.0000   -0.0000   -1.6835   -0.0000   -1.6967

  MBIS Octupoles: [e a0^3]
   Center  Symbol  Z      XXX       XXY       XXZ       XYY       XYZ       XZZ       YYY       YYZ       YZZ       ZZZ
      1       C    6   -0.0000   -0.0000    0.0797   -0.0000    0.0000   -0.0000   -0.0000    0.0797   -0.0000   -0.8146
      2       H    1    0.0000    0.0000   -0.0966    0.0000   -0.0000   -0.0000   -0.0000   -0.0966   -0.0000   -0.1238

  MBIS Radial Moments:
   Center  Symbol  Z      [a0^2]      [a0^3]      [a0^4]
      1       C    6   19.736096   54.812329   179.890936
      2       H    1    5.063607   14.093938   46.036877

  MBIS Valence Widths: [a0]
   Center  Symbol  Z     Width
      1       C    6    0.580952
      2       H    1    0.562105

*** tstop() called on Mac.lan at Sun Aug 10 17:36:36 2025
Module time:
	user time   =       2.68 seconds =       0.04 minutes
	system time =       1.39 seconds =       0.02 minutes
	total time  =          0 seconds =       0.00 minutes
Total time:
	user time   =      13.32 seconds =       0.22 minutes
	system time =       3.82 seconds =       0.06 minutes
	total time  =          1 seconds =       0.02 minutes

    Psi4 stopped on: Sunday, 10 August 2025 05:36PM
    Psi4 wall time for execution: 0:00:01.66

*** Psi4 exiting successfully. Buy a developer a beer!
