                               Psi4 1.9.1 release

  ==> Input File <==

--------------------------------------------------------------------------
molecule {
-1 3
O           0.000000           0.000000           0.000000
N           0.000000           0.000000           1.129142
}

set {
basis              cc-pvtz
reference          uks
maxiter            500
DAMPING_PERCENTAGE 1
E_CONVERGENCE      1.0E-8
D_CONVERGENCE      1.0E-8
DIIS_MAX_VECS      400
MBIS_MAXITER       8000
guess              read
}

E, wfn = energy('b3lyp', restart_file='last_wfn', return_wfn=True)
properties('b3lyp','MBIS_CHARGES', wfn=wfn)
wfn.to_file('last_wfn')
--------------------------------------------------------------------------

    Molecular point group: c2v
  Charge       = -1
  Multiplicity = 3
  Basis Set: CC-PVTZ
    Blend: CC-PVTZ
  Basis Set: (CC-PVTZ AUX)
    Blend: CC-PVTZ-JKFIT
  @DF-UKS Final Energy:  -129.90270438721200
    Total Energy =                       -129.9027043872119975
 Dipole X            :          0.0000000            0.0000000            0.0000000
 Dipole Y            :          0.0000000            0.0000000            0.0000000
 Dipole Z            :         -0.4339249           -0.0042813           -0.4382062
 Magnitude           :                                                    0.4382062
    Molecular point group: c2v

    Geometry (in Angstrom), charge = -1, multiplicity = 3:

       Center              X                  Y                   Z               Mass
    ------------   -----------------  -----------------  -----------------  -----------------
         O            0.000000000000     0.000000000000    -0.527083971719    15.994914619570
         N            0.000000000000     0.000000000000     0.602058028281    14.003074004430

  Charge       = -1
  Multiplicity = 3
  Basis Set: CC-PVTZ
    Blend: CC-PVTZ
  Basis Set: (CC-PVTZ AUX)
    Blend: CC-PVTZ-JKFIT

    Orbital Energies [Eh]
    ---------------------

    Alpha Occupied:

       1A1   -18.831619     2A1   -13.998413     3A1    -0.860363
       4A1    -0.311361     1B1    -0.158555     1B2    -0.158555
       5A1    -0.107712     2B1     0.173733     2B2     0.173733

    Alpha Virtual:

       6A1     0.522523     3B1     0.721593     3B2     0.721593
       7A1     0.750534     8A1     0.845202     4B1     0.898542
       4B2     0.898542     9A1     0.969629    10A1     1.278361
       1A2     1.278361    11A1     1.495130     5B2     1.500073
       5B1     1.500073    12A1     1.879859     2A2     1.879859
      13A1     2.012492     6B2     2.356653     6B1     2.356653
      14A1     2.569170     7B2     3.203757     7B1     3.203757
      15A1     3.461247     8B1     3.932304     8B2     3.932304
       3A2     4.156257    16A1     4.156257     9B2     4.165393
       9B1     4.165393    17A1     4.228976    10B1     4.452703
      10B2     4.452703    18A1     4.719953     4A2     4.755803
      19A1     4.755806    11B2     5.126900    11B1     5.126900
      20A1     5.229408    12B2     5.436560    12B1     5.436560
       5A2     5.963734    21A1     5.963735    22A1     6.542573
       6A2     6.542582    23A1     6.749742    13B1     6.820480
      13B2     6.820480    14B2     7.360991    14B1     7.360991
      24A1     7.401075    25A1     7.506279    26A1    14.219117

    Beta Occupied:

       1A1   -18.811436     2A1   -13.972271     3A1    -0.821349
       4A1    -0.245896     1B1    -0.084794     1B2    -0.084794
       5A1    -0.062198

    Beta Virtual:

       2B1     0.337156     2B2     0.337156     6A1     0.533701
       3B1     0.765696     3B2     0.765696     7A1     0.775284
       8A1     0.867167     4B1     0.936777     4B2     0.936777
       9A1     1.005677    10A1     1.326728     1A2     1.326728
      11A1     1.514464     5B2     1.533401     5B1     1.533401
       2A2     1.925401    12A1     1.925402    13A1     2.039173
       6B2     2.388288     6B1     2.388288    14A1     2.593667
       7B2     3.276942     7B1     3.276942    15A1     3.487934
       8B1     3.983405     8B2     3.983405     3A2     4.196396
      16A1     4.196396     9B2     4.243202     9B1     4.243202
      17A1     4.261772    10B1     4.490945    10B2     4.490945
      18A1     4.753227     4A2     4.864361    19A1     4.864364
      11B2     5.170054    11B1     5.170054    20A1     5.260087
      12B2     5.484641    12B1     5.484641     5A2     6.001236
      21A1     6.001237    22A1     6.613576     6A2     6.613584
      23A1     6.771580    13B1     6.860402    13B2     6.860402
      14B2     7.392610    14B1     7.392610    24A1     7.441074
      25A1     7.526569    26A1    14.253650

    Final Occupation by Irrep:
             A1    A2    B1    B2
    DOCC [     5,    0,    1,    1 ]
    SOCC [     0,    0,    1,    1 ]
    NA   [     5,    0,    2,    2 ]
    NB   [     5,    0,    1,    1 ]

  @DF-UKS Final Energy:  -129.90270438728751

   => Energetics <=

    Nuclear Repulsion Energy =             26.2446386703532433
    One-Electron Energy =                -234.9617879888652965
    Two-Electron Energy =                  91.5821647944418800
    DFT Exchange-Correlation Energy =     -12.7677198632173390
    Empirical Dispersion Energy =           0.0000000000000000
    VV10 Nonlocal Energy =                  0.0000000000000000
    Total Energy =                       -129.9027043872875140

  UHF NO Occupations:
  HONO-2 :    1 B2 1.9989844
  HONO-1 :    2 B1 1.0000000
  HONO-0 :    2 B2 1.0000000
  LUNO+0 :    3 B2 0.0010156
  LUNO+1 :    3 B1 0.0010156
  LUNO+2 :    6 A1 0.0009481
  LUNO+3 :    7 A1 0.0001985

Computation Completed

Properties will be evaluated at   0.000000,   0.000000,   0.000000 [a0]

Properties computed using the B3LYP density matrix

 Multipole Moments:

 ------------------------------------------------------------------------------------
     Multipole            Electronic (a.u.)      Nuclear  (a.u.)        Total (a.u.)
 ------------------------------------------------------------------------------------

 L = 1.  Multiply by 2.5417464519 to convert [e a0] to [Debye]
 Dipole X            :          0.0000000            0.0000000            0.0000000
 Dipole Y            :          0.0000000            0.0000000            0.0000000
 Dipole Z            :         -0.4339249           -0.0042813           -0.4382062
 Magnitude           :                                                    0.4382062

 L = 2.  Multiply by 1.3450342976 to convert [e a0^2] to [Debye ang]
 Quadrupole XX       :         -9.4610905            0.0000000           -9.4610905
 Quadrupole XY       :          0.0000000            0.0000000            0.0000000
 Quadrupole XZ       :          0.0000000            0.0000000            0.0000000
 Quadrupole YY       :         -9.4610905            0.0000000           -9.4610905
 Quadrupole YZ       :          0.0000000            0.0000000            0.0000000
 Quadrupole ZZ       :        -29.1365185           16.9977586          -12.1387599
 Traceless XX        :          6.5584760           -5.6659195            0.8925564
 Traceless YY        :          6.5584760           -5.6659195            0.8925564
 Traceless ZZ        :        -13.1169520           11.3318391           -1.7851129

 ------------------------------------------------------------------------------------
  ==> Computing MBIS Charges <==

  Electron Count from Grid (Expected Number): 16.00000 (16.00000)
  Difference:  0.00000

  MBIS Charges: (a.u.)
   Center  Symbol  Z      Pop.       Charge
      1       O    8    8.363487   -0.363487
      2       N    7    7.636514   -0.636514

  MBIS Dipoles: [e a0]
   Center  Symbol  Z        X           Y           Z
      1       O    8   -0.000000   -0.000000    0.232612
      2       N    7    0.000000    0.000000   -0.308689

  MBIS Quadrupoles: [e a0^2]
   Center  Symbol  Z      XX        XY        XZ        YY        YZ        ZZ
      1       O    8   -4.1305   -0.0000    0.0000   -4.1305    0.0000   -4.3473
      2       N    7   -5.3306   -0.0000    0.0000   -5.3306    0.0000   -5.4412

  MBIS Octupoles: [e a0^3]
   Center  Symbol  Z      XXX       XXY       XXZ       XYY       XYZ       XZZ       YYY       YYZ       YZZ       ZZZ
      1       O    8   -0.0000   -0.0000    0.3219   -0.0000    0.0000   -0.0000   -0.0000    0.3219   -0.0000    0.3257
      2       N    7    0.0000    0.0000   -0.5418   -0.0000    0.0000    0.0000    0.0000   -0.5418    0.0000    0.0748

  MBIS Radial Moments:
   Center  Symbol  Z      [a0^2]      [a0^3]      [a0^4]
      1       O    8   12.608222   24.601597   57.559367
      2       N    7   16.102398   37.258223   102.032569

  MBIS Valence Widths: [a0]
   Center  Symbol  Z     Width
      1       O    8    0.395880
      2       N    7    0.476732

*** tstop() called on Mac.lan at Sun Aug 10 17:44:30 2025
Module time:
	user time   =       4.01 seconds =       0.07 minutes
	system time =       2.05 seconds =       0.03 minutes
	total time  =          0 seconds =       0.00 minutes
Total time:
	user time   =      18.77 seconds =       0.31 minutes
	system time =       3.67 seconds =       0.06 minutes
	total time  =          2 seconds =       0.03 minutes

    Psi4 stopped on: Sunday, 10 August 2025 05:44PM
    Psi4 wall time for execution: 0:00:02.17

*** Psi4 exiting successfully. Buy a developer a beer!
