                               Psi4 1.9.1 release

  ==> Input File <==

--------------------------------------------------------------------------
molecule {
-1 2
O           0.000000           0.000000           0.000000
C           0.000000           0.000000           1.747743
}

set {
basis              cc-pvtz
reference          uks
maxiter            500
DAMPING_PERCENTAGE 1
E_CONVERGENCE      1.0E-8
D_CONVERGENCE      1.0E-8
DIIS_MAX_VECS      400
MBIS_MAXITER       8000
guess              read
}

E, wfn = energy('b3lyp', restart_file='last_wfn', return_wfn=True)
properties('b3lyp','MBIS_CHARGES', wfn=wfn)
wfn.to_file('last_wfn')
--------------------------------------------------------------------------

    Molecular point group: c2v
  Charge       = -1
  Multiplicity = 2
  Basis Set: CC-PVTZ
    Blend: CC-PVTZ
  Basis Set: (CC-PVTZ AUX)
    Blend: CC-PVTZ-JKFIT
  @DF-UKS Final Energy:  -113.15454613932688
    Total Energy =                       -113.1545461393268823
 Dipole X            :          0.0000000            0.0000000            0.0000000
 Dipole Y            :          0.0000000            0.0000000            0.0000000
 Dipole Z            :         -0.1085358           -0.0035997           -0.1121356
 Magnitude           :                                                    0.1121356
    Molecular point group: c2v

    Geometry (in Angstrom), charge = -1, multiplicity = 2:

       Center              X                  Y                   Z               Mass
    ------------   -----------------  -----------------  -----------------  -----------------
         O            0.000000000000     0.000000000000    -0.749168778866    15.994914619570
         C            0.000000000000     0.000000000000     0.998574221134    12.000000000000

  Charge       = -1
  Multiplicity = 2
  Basis Set: CC-PVTZ
    Blend: CC-PVTZ
  Basis Set: (CC-PVTZ AUX)
    Blend: CC-PVTZ-JKFIT

    Orbital Energies [Eh]
    ---------------------

    Alpha Occupied:

       1A1   -18.847146     2A1   -10.012738     3A1    -0.590797
       4A1    -0.275918     5A1    -0.038145     1B1    -0.035761
       1B2    -0.004553     2B1     0.064083

    Alpha Virtual:

       2B2     0.152631     6A1     0.288859     3B1     0.537369
       7A1     0.538819     3B2     0.548480     8A1     0.607825
       9A1     0.836155     4B1     0.881137     4B2     0.888386
       1A2     0.919663    10A1     0.921578     5B2     1.024015
       5B1     1.024095    11A1     1.217122    12A1     1.509581
       2A2     1.792720    13A1     1.793484     6B1     1.903847
       6B2     1.905729    14A1     2.015961     7B1     2.231056
       7B2     2.243658    15A1     2.617927     8B1     2.926843
       8B2     2.927377     3A2     2.951280    16A1     2.953225
       9B1     3.071089     9B2     3.073242    17A1     3.107834
       4A2     3.187636    18A1     3.192279    10B1     3.347326
      10B2     3.354471    19A1     3.464688    11B1     3.956246
      11B2     3.967322    20A1     4.023961    21A1     4.698966
      12B1     5.452498    12B2     5.452606     5A2     5.462737
      22A1     5.463475    13B2     5.598780    13B1     5.599746
      23A1     5.830611     6A2     6.521307    24A1     6.523243
      14B1     6.725593    14B2     6.733278    25A1     7.117191
      26A1     8.429165

    Beta Occupied:

       1A1   -18.850281     2A1    -9.996103     3A1    -0.598359
       4A1    -0.223979     5A1    -0.032132     1B2    -0.028848
       1B1     0.001196

    Beta Virtual:

       2B2     0.174229     2B1     0.205600     6A1     0.302488
       7A1     0.548270     3B2     0.570635     3B1     0.592110
       8A1     0.631320     9A1     0.837757     4B2     0.875954
       4B1     0.895178     1A2     0.964814    10A1     0.964906
       5B2     1.030716     5B1     1.048850    11A1     1.228838
      12A1     1.508579     2A2     1.787877    13A1     1.787982
       6B2     1.899418     6B1     1.919236    14A1     2.021075
       7B2     2.270422     7B1     2.300366    15A1     2.637222
       8B2     2.987984     8B1     2.988127    16A1     2.992341
       3A2     2.992734     9B2     3.091113     9B1     3.116215
      17A1     3.123140    18A1     3.266825     4A2     3.267562
      10B2     3.372185    10B1     3.400377    19A1     3.489280
      11B2     3.941596    11B1     3.969755    20A1     4.047440
      21A1     4.702284    12B2     5.445163    12B1     5.445212
      22A1     5.456177     5A2     5.456305    13B2     5.582777
      13B1     5.604638    23A1     5.826703    24A1     6.512866
       6A2     6.512988    14B2     6.707892    14B1     6.734360
      25A1     7.111992    26A1     8.423251

    Final Occupation by Irrep:
             A1    A2    B1    B2
    DOCC [     5,    0,    1,    1 ]
    SOCC [     0,    0,    1,    0 ]
    NA   [     5,    0,    2,    1 ]
    NB   [     5,    0,    1,    1 ]

  @DF-UKS Final Energy:  -113.15454613998577

   => Energetics <=

    Nuclear Repulsion Energy =             14.5333187500450585
    One-Electron Energy =                -187.7910192699744130
    Two-Electron Energy =                  71.3755471133723773
    DFT Exchange-Correlation Energy =     -11.2723927334287897
    Empirical Dispersion Energy =           0.0000000000000000
    VV10 Nonlocal Energy =                  0.0000000000000000
    Total Energy =                       -113.1545461399857686

  UHF NO Occupations:
  HONO-2 :    5 A1 1.9982360
  HONO-1 :    1 B2 1.9569010
  HONO-0 :    2 B1 1.0000000
  LUNO+0 :    2 B2 0.0430990
  LUNO+1 :    6 A1 0.0017640
  LUNO+2 :    3 B1 0.0006964
  LUNO+3 :    7 A1 0.0004931

Computation Completed

Properties will be evaluated at   0.000000,   0.000000,   0.000000 [a0]

Properties computed using the B3LYP density matrix

 Multipole Moments:

 ------------------------------------------------------------------------------------
     Multipole            Electronic (a.u.)      Nuclear  (a.u.)        Total (a.u.)
 ------------------------------------------------------------------------------------

 L = 1.  Multiply by 2.5417464519 to convert [e a0] to [Debye]
 Dipole X            :          0.0000000            0.0000000            0.0000000
 Dipole Y            :          0.0000000            0.0000000            0.0000000
 Dipole Z            :         -0.1085361           -0.0035997           -0.1121358
 Magnitude           :                                                    0.1121358

 L = 2.  Multiply by 1.3450342976 to convert [e a0^2] to [Debye ang]
 Quadrupole XX       :        -11.2184200            0.0000000          -11.2184200
 Quadrupole XY       :          0.0000000            0.0000000            0.0000000
 Quadrupole XZ       :          0.0000000            0.0000000            0.0000000
 Quadrupole YY       :         -9.9924662            0.0000000           -9.9924662
 Quadrupole YZ       :          0.0000000            0.0000000            0.0000000
 Quadrupole ZZ       :        -51.6852016           37.3995253          -14.2856763
 Traceless XX        :         13.0802759          -12.4665084            0.6137675
 Traceless YY        :         14.3062298          -12.4665084            1.8397213
 Traceless ZZ        :        -27.3865057           24.9330169           -2.4534888

 ------------------------------------------------------------------------------------
  ==> Computing MBIS Charges <==

  Electron Count from Grid (Expected Number): 15.00000 (15.00000)
  Difference: -0.00000

  MBIS Charges: (a.u.)
   Center  Symbol  Z      Pop.       Charge
      1       O    8    8.606646   -0.606646
      2       C    6    6.393353   -0.393353

  MBIS Dipoles: [e a0]
   Center  Symbol  Z        X           Y           Z
      1       O    8    0.000000    0.000000    0.019938
      2       C    6   -0.000000    0.000000   -0.248648

  MBIS Quadrupoles: [e a0^2]
   Center  Symbol  Z      XX        XY        XZ        YY        YZ        ZZ
      1       O    8   -4.9036   -0.0000   -0.0000   -4.6404   -0.0000   -4.6215
      2       C    6   -6.3148    0.0000    0.0000   -5.3521    0.0000   -6.0528

  MBIS Octupoles: [e a0^3]
   Center  Symbol  Z      XXX       XXY       XXZ       XYY       XYZ       XZZ       YYY       YYZ       YZZ       ZZZ
      1       O    8    0.0000   -0.0000    0.0036   -0.0000    0.0000   -0.0000   -0.0000   -0.0409   -0.0000   -0.1991
      2       C    6   -0.0000   -0.0000   -0.3508    0.0000    0.0000    0.0000    0.0000   -0.0070    0.0000    0.0681

  MBIS Radial Moments:
   Center  Symbol  Z      [a0^2]      [a0^3]      [a0^4]
      1       O    8   14.165509   28.693190   69.261435
      2       C    6   17.719610   47.703569   151.297044

  MBIS Valence Widths: [a0]
   Center  Symbol  Z     Width
      1       O    8    0.413518
      2       C    6    0.566545

*** tstop() called on Mac.lan at Sun Aug 10 17:43:55 2025
Module time:
	user time   =       3.41 seconds =       0.06 minutes
	system time =       2.01 seconds =       0.03 minutes
	total time  =          0 seconds =       0.00 minutes
Total time:
	user time   =      24.06 seconds =       0.40 minutes
	system time =       4.41 seconds =       0.07 minutes
	total time  =          2 seconds =       0.03 minutes

    Psi4 stopped on: Sunday, 10 August 2025 05:43PM
    Psi4 wall time for execution: 0:00:02.73

*** Psi4 exiting successfully. Buy a developer a beer!
