                               Psi4 1.9.1 release

  ==> Input File <==

--------------------------------------------------------------------------
molecule {
-1 2
C           0.000000           0.000000           0.000000
C           0.000000           0.000000           0.528249
}

set {
basis              cc-pvtz
reference          uks
maxiter            500
DAMPING_PERCENTAGE 1
E_CONVERGENCE      1.0E-8
D_CONVERGENCE      1.0E-8
DIIS_MAX_VECS      400
MBIS_MAXITER       8000
guess              read
}

E, wfn = energy('b3lyp', restart_file='last_wfn', return_wfn=True)
properties('b3lyp','MBIS_CHARGES', wfn=wfn)
wfn.to_file('last_wfn')
--------------------------------------------------------------------------

    Molecular point group: d2h
  Charge       = -1
  Multiplicity = 2
  Basis Set: CC-PVTZ
    Blend: CC-PVTZ
  Basis Set: (CC-PVTZ AUX)
    Blend: CC-PVTZ-JKFIT
  @DF-UKS Final Energy:   -71.95297152367776
    Total Energy =                        -71.9529715236777463
 Dipole X            :          0.0000000            0.0000000            0.0000000
 Dipole Y            :          0.0000000            0.0000000            0.0000000
 Dipole Z            :          0.0000000            0.0000000            0.0000000
 Magnitude           :                                                    0.0000000
    Molecular point group: d2h

    Geometry (in Angstrom), charge = -1, multiplicity = 2:

       Center              X                  Y                   Z               Mass
    ------------   -----------------  -----------------  -----------------  -----------------
         C            0.000000000000     0.000000000000    -0.264124500000    12.000000000000
         C            0.000000000000     0.000000000000     0.264124500000    12.000000000000

  Charge       = -1
  Multiplicity = 2
  Basis Set: CC-PVTZ
    Blend: CC-PVTZ
  Basis Set: (CC-PVTZ AUX)
    Blend: CC-PVTZ-JKFIT

    Orbital Energies [Eh]
    ---------------------

    Alpha Occupied:

       1Ag   -10.845880     1B1u  -10.031061     1B3u   -0.396211
       1B2u   -0.396211     2Ag    -0.367489     2B1u    0.040072
       3Ag     0.215305

    Alpha Virtual:

       3B1u    0.396944     2B2u    0.425240     2B3u    0.425240
       1B3g    0.430627     1B2g    0.430627     4Ag     0.511316
       5Ag     0.657701     2B3g    0.871024     2B2g    0.871024
       1B1g    0.897202     6Ag     0.897202     4B1u    0.988984
       3B2u    1.249630     3B3u    1.249630     5B1u    1.264634
       1Au     1.264634     6B1u    1.273460     7Ag     1.402423
       3B3g    1.629202     3B2g    1.629202     4B2u    1.742955
       4B3u    1.742955     8Ag     2.432161     9Ag     2.766245
       2B1g    2.766245     5B3u    2.785321     5B2u    2.785321
       7B1u    2.803315     8B1u    3.002779     9B1u    3.097765
       2Au     3.097766     6B3u    3.105033     6B2u    3.105033
       4B2g    3.115205     4B3g    3.115205    10Ag     3.616202
       5B3g    3.668657     5B2g    3.668657    11Ag     3.669364
       3B1g    3.669364     6B3g    3.726930     6B2g    3.726930
      12Ag     3.772587    13Ag     5.142061    10B1u    5.176399
      11B1u    5.647525     3Au     5.647526     7B3u    5.807593
       7B2u    5.807593     7B3g    7.283146     7B2g    7.283146
      12B1u    9.273374    13B1u   24.356171

    Beta Occupied:

       1Ag   -10.817555     1B1u  -10.008456     1B3u   -0.369801
       1B2u   -0.369801     2Ag    -0.343932     2B1u    0.072833

    Beta Virtual:

       3Ag     0.337372     3B1u    0.413542     2B2u    0.430342
       2B3u    0.430342     1B3g    0.439530     1B2g    0.439530
       4Ag     0.569735     5Ag     0.663910     2B3g    0.877447
       2B2g    0.877447     1B1g    0.898059     6Ag     0.898059
       4B1u    1.001588     5B1u    1.266675     1Au     1.266675
       3B2u    1.267985     3B3u    1.267985     6B1u    1.299880
       7Ag     1.445166     3B3g    1.641542     3B2g    1.641542
       4B2u    1.756342     4B3u    1.756342     8Ag     2.454736
       2B1g    2.785767     9Ag     2.785768     5B3u    2.790836
       5B2u    2.790836     7B1u    2.826900     8B1u    3.035030
       9B1u    3.098740     2Au     3.098740     4B2g    3.121303
       4B3g    3.121303     6B3u    3.127758     6B2u    3.127758
      10Ag     3.635992     5B3g    3.665288     5B2g    3.665288
      11Ag     3.674925     3B1g    3.674925     6B3g    3.746610
       6B2g    3.746610    12Ag     3.789063    13Ag     5.196565
      10B1u    5.201626    11B1u    5.652339     3Au     5.652339
       7B3u    5.835144     7B2u    5.835144     7B3g    7.291714
       7B2g    7.291714    12B1u    9.314075    13B1u   24.375618

    Final Occupation by Irrep:
             Ag   B1g   B2g   B3g    Au   B1u   B2u   B3u
    DOCC [     2,    0,    0,    0,    0,    2,    1,    1 ]
    SOCC [     1,    0,    0,    0,    0,    0,    0,    0 ]
    NA   [     3,    0,    0,    0,    0,    2,    1,    1 ]
    NB   [     2,    0,    0,    0,    0,    2,    1,    1 ]

  @DF-UKS Final Energy:   -71.95297152363784

   => Energetics <=

    Nuclear Repulsion Energy =             36.0632572595878145
    One-Electron Energy =                -165.5094331885818804
    Two-Electron Energy =                  67.1046381477093234
    DFT Exchange-Correlation Energy =      -9.6114337423530802
    Empirical Dispersion Energy =           0.0000000000000000
    VV10 Nonlocal Energy =                  0.0000000000000000
    Total Energy =                        -71.9529715236378422

  UHF NO Occupations:
  HONO-2 :    2B1u 1.9997655
  HONO-1 :    2 Ag 1.9997332
  HONO-0 :    3 Ag 1.0000000
  LUNO+0 :    4 Ag 0.0002668
  LUNO+1 :    3B1u 0.0002345
  LUNO+2 :    2B2u 0.0001114
  LUNO+3 :    2B3u 0.0001114

Computation Completed

Properties will be evaluated at   0.000000,   0.000000,   0.000000 [a0]

Properties computed using the B3LYP density matrix

 Multipole Moments:

 ------------------------------------------------------------------------------------
     Multipole            Electronic (a.u.)      Nuclear  (a.u.)        Total (a.u.)
 ------------------------------------------------------------------------------------

 L = 1.  Multiply by 2.5417464519 to convert [e a0] to [Debye]
 Dipole X            :          0.0000000            0.0000000            0.0000000
 Dipole Y            :          0.0000000            0.0000000            0.0000000
 Dipole Z            :          0.0000000            0.0000000            0.0000000
 Magnitude           :                                                    0.0000000

 L = 2.  Multiply by 1.3450342976 to convert [e a0^2] to [Debye ang]
 Quadrupole XX       :         -8.4831951            0.0000000           -8.4831951
 Quadrupole XY       :          0.0000000            0.0000000            0.0000000
 Quadrupole XZ       :          0.0000000            0.0000000            0.0000000
 Quadrupole YY       :         -8.4831951            0.0000000           -8.4831951
 Quadrupole YZ       :          0.0000000            0.0000000            0.0000000
 Quadrupole ZZ       :        -18.8311630            2.9894848          -15.8416781
 Traceless XX        :          3.4493226           -0.9964949            2.4528277
 Traceless YY        :          3.4493226           -0.9964949            2.4528277
 Traceless ZZ        :         -6.8986453            1.9929899           -4.9056554

 ------------------------------------------------------------------------------------
  ==> Computing MBIS Charges <==

  Electron Count from Grid (Expected Number): 13.00000 (13.00000)
  Difference: -0.00000

  MBIS Charges: (a.u.)
   Center  Symbol  Z      Pop.       Charge
      1       C    6    6.499999   -0.499999
      2       C    6    6.499999   -0.499999

  MBIS Dipoles: [e a0]
   Center  Symbol  Z        X           Y           Z
      1       C    6   -0.000000   -0.000000    0.425090
      2       C    6   -0.000000   -0.000000   -0.425090

  MBIS Quadrupoles: [e a0^2]
   Center  Symbol  Z      XX        XY        XZ        YY        YZ        ZZ
      1       C    6   -4.2416    0.0000   -0.0000   -4.2416   -0.0000   -7.3719
      2       C    6   -4.2416    0.0000    0.0000   -4.2416    0.0000   -7.3719

  MBIS Octupoles: [e a0^3]
   Center  Symbol  Z      XXX       XXY       XXZ       XYY       XYZ       XZZ       YYY       YYZ       YZZ       ZZZ
      1       C    6   -0.0000   -0.0000    1.1720   -0.0000    0.0000   -0.0000   -0.0000    1.1720   -0.0000    4.5890
      2       C    6   -0.0000   -0.0000   -1.1720   -0.0000   -0.0000    0.0000    0.0000   -1.1720    0.0000   -4.5890

  MBIS Radial Moments:
   Center  Symbol  Z      [a0^2]      [a0^3]      [a0^4]
      1       C    6   15.855128   44.187851   151.885746
      2       C    6   15.855128   44.187851   151.885746

  MBIS Valence Widths: [a0]
   Center  Symbol  Z     Width
      1       C    6    0.511356
      2       C    6    0.511356

*** tstop() called on Mac.lan at Sun Aug 10 17:30:25 2025
Module time:
	user time   =       4.25 seconds =       0.07 minutes
	system time =       1.91 seconds =       0.03 minutes
	total time  =          1 seconds =       0.02 minutes
Total time:
	user time   =      19.25 seconds =       0.32 minutes
	system time =       4.11 seconds =       0.07 minutes
	total time  =          3 seconds =       0.05 minutes

    Psi4 stopped on: Sunday, 10 August 2025 05:30PM
    Psi4 wall time for execution: 0:00:02.26

*** Psi4 exiting successfully. Buy a developer a beer!
