                               Psi4 1.9.1 release

  ==> Input File <==

--------------------------------------------------------------------------
molecule {
-1 3
O           0.000000           0.000000           0.000000
N           0.000000           0.000000           0.622841
}

set {
basis              cc-pvtz
reference          uks
maxiter            500
DAMPING_PERCENTAGE 1
E_CONVERGENCE      1.0E-8
D_CONVERGENCE      1.0E-8
DIIS_MAX_VECS      400
MBIS_MAXITER       8000
guess              read
}

E, wfn = energy('b3lyp', restart_file='last_wfn', return_wfn=True)
properties('b3lyp','MBIS_CHARGES', wfn=wfn)
wfn.to_file('last_wfn')
--------------------------------------------------------------------------

    Molecular point group: c2v
  Charge       = -1
  Multiplicity = 3
  Basis Set: CC-PVTZ
    Blend: CC-PVTZ
  Basis Set: (CC-PVTZ AUX)
    Blend: CC-PVTZ-JKFIT
  @DF-UKS Final Energy:  -127.19347820013824
    Total Energy =                       -127.1934782001382445
 Dipole X            :          0.0000000            0.0000000            0.0000000
 Dipole Y            :          0.0000000            0.0000000            0.0000000
 Dipole Z            :         -1.8566176           -0.0023616           -1.8589792
 Magnitude           :                                                    1.8589792
    Molecular point group: c2v

    Geometry (in Angstrom), charge = -1, multiplicity = 3:

       Center              X                  Y                   Z               Mass
    ------------   -----------------  -----------------  -----------------  -----------------
         O            0.000000000000     0.000000000000    -0.290742446946    15.994914619570
         N            0.000000000000     0.000000000000     0.332098553054    14.003074004430

  Charge       = -1
  Multiplicity = 3
  Basis Set: CC-PVTZ
    Blend: CC-PVTZ
  Basis Set: (CC-PVTZ AUX)
    Blend: CC-PVTZ-JKFIT

    Orbital Energies [Eh]
    ---------------------

    Alpha Occupied:

       1A1   -18.986655     2A1   -14.152842     3A1    -1.250642
       1B2    -0.613776     1B1    -0.613776     4A1    -0.371765
       5A1    -0.155737     2B1     0.399521     2B2     0.399521

    Alpha Virtual:

       6A1     0.467218     3B2     0.590681     3B1     0.590681
       7A1     0.659053     8A1     0.804215     4B2     0.970148
       4B1     0.970148     9A1     1.193145     1A2     1.193146
      10A1     1.538203     5B1     1.771690     5B2     1.771690
      11A1     1.805994    12A1     1.997750     2A2     1.997751
       6B1     2.216103     6B2     2.216103    13A1     2.243814
       7B1     2.979156     7B2     2.979156    14A1     3.500036
      15A1     3.879252     8B2     3.999228     8B1     3.999228
      16A1     4.316773     3A2     4.316773     9B1     4.432179
       9B2     4.432179    17A1     4.496022     4A2     4.681784
      18A1     4.681785    10B1     4.798275    10B2     4.798275
      19A1     5.186204    11B2     5.712985    11B1     5.712985
      12B1     5.718533    12B2     5.718533    20A1     6.283093
       5A2     6.283095    21A1     6.675463    13B1     7.419086
      13B2     7.419086    22A1     7.796079    23A1     7.803565
       6A2     7.803565    14B1     9.531548    14B2     9.531548
      24A1    10.124222    25A1    10.801310    26A1    28.795883

    Beta Occupied:

       1A1   -18.974472     2A1   -14.150603     3A1    -1.238420
       1B1    -0.582924     1B2    -0.582924     4A1    -0.344342
       5A1    -0.111767

    Beta Virtual:

       6A1     0.488330     2B1     0.527366     2B2     0.527366
       3B2     0.607519     3B1     0.607519     7A1     0.681187
       8A1     0.846177     4B2     1.017899     4B1     1.017899
       9A1     1.228562     1A2     1.228562    10A1     1.552651
       5B1     1.807375     5B2     1.807375    11A1     1.825787
      12A1     2.045145     2A2     2.045145     6B1     2.243542
       6B2     2.243542    13A1     2.260211     7B1     3.004626
       7B2     3.004626    14A1     3.526349    15A1     3.889944
       8B2     4.024691     8B1     4.024691     3A2     4.332783
      16A1     4.332783     9B1     4.460862     9B2     4.460862
      17A1     4.511509     4A2     4.718415    18A1     4.718416
      10B1     4.821799    10B2     4.821799    19A1     5.203310
      11B1     5.742327    11B2     5.742327    12B2     5.745979
      12B1     5.745979    20A1     6.322420     5A2     6.322420
      21A1     6.691607    13B1     7.437301    13B2     7.437301
      22A1     7.803209    23A1     7.833566     6A2     7.833566
      14B1     9.557075    14B2     9.557075    24A1    10.133841
      25A1    10.820723    26A1    28.810001

    Final Occupation by Irrep:
             A1    A2    B1    B2
    DOCC [     5,    0,    1,    1 ]
    SOCC [     0,    0,    1,    1 ]
    NA   [     5,    0,    2,    2 ]
    NB   [     5,    0,    1,    1 ]

  @DF-UKS Final Energy:  -127.19347820045373

   => Energetics <=

    Nuclear Repulsion Energy =             47.5786337083140012
    One-Electron Energy =                -268.5262995689832337
    Two-Electron Energy =                 107.2752053030630890
    DFT Exchange-Correlation Energy =     -13.5210176428475695
    Empirical Dispersion Energy =           0.0000000000000000
    VV10 Nonlocal Energy =                  0.0000000000000000
    Total Energy =                       -127.1934782004537254

  UHF NO Occupations:
  HONO-2 :    5 A1 1.9993839
  HONO-1 :    2 B1 1.0000000
  HONO-0 :    2 B2 1.0000000
  LUNO+0 :    6 A1 0.0006161
  LUNO+1 :    3 B2 0.0000811
  LUNO+2 :    3 B1 0.0000811
  LUNO+3 :    7 A1 0.0000397

Computation Completed

Properties will be evaluated at   0.000000,   0.000000,   0.000000 [a0]

Properties computed using the B3LYP density matrix

 Multipole Moments:

 ------------------------------------------------------------------------------------
     Multipole            Electronic (a.u.)      Nuclear  (a.u.)        Total (a.u.)
 ------------------------------------------------------------------------------------

 L = 1.  Multiply by 2.5417464519 to convert [e a0] to [Debye]
 Dipole X            :          0.0000000            0.0000000            0.0000000
 Dipole Y            :          0.0000000            0.0000000            0.0000000
 Dipole Z            :         -1.8566176           -0.0023616           -1.8589792
 Magnitude           :                                                    1.8589792

 L = 2.  Multiply by 1.3450342976 to convert [e a0^2] to [Debye ang]
 Quadrupole XX       :        -10.3498360            0.0000000          -10.3498360
 Quadrupole XY       :          0.0000000            0.0000000            0.0000000
 Quadrupole XZ       :          0.0000000            0.0000000            0.0000000
 Quadrupole YY       :        -10.3498360            0.0000000          -10.3498360
 Quadrupole YZ       :          0.0000000            0.0000000            0.0000000
 Quadrupole ZZ       :        -17.3760640            5.1718857          -12.2041783
 Traceless XX        :          2.3420760           -1.7239619            0.6181141
 Traceless YY        :          2.3420760           -1.7239619            0.6181141
 Traceless ZZ        :         -4.6841520            3.4479238           -1.2362282

 ------------------------------------------------------------------------------------
  ==> Computing MBIS Charges <==

  Electron Count from Grid (Expected Number): 16.00000 (16.00000)
  Difference: -0.00000

  MBIS Charges: (a.u.)
   Center  Symbol  Z      Pop.       Charge
      1       O    8    7.337017    0.662983
      2       N    7    8.662981   -1.662981

  MBIS Dipoles: [e a0]
   Center  Symbol  Z        X           Y           Z
      1       O    8    0.000000   -0.000000    0.044756
      2       N    7    0.000000    0.000000   -0.495832

  MBIS Quadrupoles: [e a0^2]
   Center  Symbol  Z      XX        XY        XZ        YY        YZ        ZZ
      1       O    8   -2.0930    0.0000   -0.0000   -2.0930    0.0000   -2.6514
      2       N    7   -8.2568    0.0000   -0.0000   -8.2568    0.0000   -8.4264

  MBIS Octupoles: [e a0^3]
   Center  Symbol  Z      XXX       XXY       XXZ       XYY       XYZ       XZZ       YYY       YYZ       YZZ       ZZZ
      1       O    8   -0.0000    0.0000    0.1067    0.0000   -0.0000   -0.0000   -0.0000    0.1067   -0.0000    0.4284
      2       N    7    0.0000   -0.0000   -2.9702   -0.0000   -0.0000    0.0000    0.0000   -2.9702   -0.0000    0.5425

  MBIS Radial Moments:
   Center  Symbol  Z      [a0^2]      [a0^3]      [a0^4]
      1       O    8    6.837391   10.457763   19.429337
      2       N    7   24.940101   68.156809   215.246265

  MBIS Valence Widths: [a0]
   Center  Symbol  Z     Width
      1       O    8    0.312630
      2       N    7    0.548715

*** tstop() called on Mac.lan at Sun Aug 10 17:46:18 2025
Module time:
	user time   =       4.27 seconds =       0.07 minutes
	system time =       2.79 seconds =       0.05 minutes
	total time  =          1 seconds =       0.02 minutes
Total time:
	user time   =      20.20 seconds =       0.34 minutes
	system time =       5.18 seconds =       0.09 minutes
	total time  =          3 seconds =       0.05 minutes

    Psi4 stopped on: Sunday, 10 August 2025 05:46PM
    Psi4 wall time for execution: 0:00:02.44

*** Psi4 exiting successfully. Buy a developer a beer!
