                               Psi4 1.9.1 release

  ==> Input File <==

--------------------------------------------------------------------------
molecule {
-1 3
C           0.000000           0.000000           0.000000
H           0.000000           0.000000           0.997409
}

set {
basis              cc-pvtz
reference          uks
maxiter            500
DAMPING_PERCENTAGE 1
E_CONVERGENCE      1.0E-8
D_CONVERGENCE      1.0E-8
DIIS_MAX_VECS      400
MBIS_MAXITER       8000
guess              read
}

E, wfn = energy('b3lyp', restart_file='last_wfn', return_wfn=True)
properties('b3lyp','MBIS_CHARGES', wfn=wfn)
wfn.to_file('last_wfn')
--------------------------------------------------------------------------

    Molecular point group: c2v
  Charge       = -1
  Multiplicity = 3
  Basis Set: CC-PVTZ
    Blend: CC-PVTZ
  Basis Set: (CC-PVTZ AUX)
    Blend: CC-PVTZ-JKFIT
  @DF-UKS Final Energy:   -38.51430680936043
    Total Energy =                        -38.5143068093604271
 Dipole X            :          0.0000000            0.0000000            0.0000000
 Dipole Y            :          0.0000000            0.0000000            0.0000000
 Dipole Z            :         -0.2292084            0.8625951            0.6333867
 Magnitude           :                                                    0.6333867
    Molecular point group: c2v

    Geometry (in Angstrom), charge = -1, multiplicity = 3:

       Center              X                  Y                   Z               Mass
    ------------   -----------------  -----------------  -----------------  -----------------
         C            0.000000000000     0.000000000000    -0.077277619824    12.000000000000
         H            0.000000000000     0.000000000000     0.920131380176     1.007825032230

  Charge       = -1
  Multiplicity = 3
  Basis Set: CC-PVTZ
    Blend: CC-PVTZ
  Basis Set: (CC-PVTZ AUX)
    Blend: CC-PVTZ-JKFIT

    Orbital Energies [Eh]
    ---------------------

    Alpha Occupied:

       1A1    -9.855163     2A1    -0.331414     3A1     0.016654
       1B2     0.091383     1B1     0.091383

    Alpha Virtual:

       4A1     0.297918     5A1     0.542591     2B2     0.577577
       2B1     0.577577     6A1     0.643502     7A1     0.774728
       3B1     0.901025     3B2     0.901025     8A1     0.968533
       1A2     0.968533     9A1     1.272446     4B2     1.349404
       4B1     1.349404    10A1     1.875110    11A1     2.293428
       5B2     2.305714     5B1     2.305714    12A1     2.512880
      13A1     2.881430     2A2     2.881430     6B2     2.999617
       6B1     2.999617     7B2     3.013167     7B1     3.013167
      14A1     3.270272     3A2     3.270272    15A1     3.319811
       8B2     3.397584     8B1     3.397584    16A1     3.775562
      17A1     4.022232     4A2     4.022232     9B2     4.189025
       9B1     4.189025    18A1     5.208257    10B2     5.335102
      10B1     5.335102    19A1     5.431226    20A1     9.853615

    Beta Occupied:

       1A1    -9.832350     2A1    -0.264421     3A1     0.055161

    Beta Virtual:

       1B2     0.246551     1B1     0.246551     4A1     0.303429
       5A1     0.560299     2B2     0.647838     2B1     0.647838
       6A1     0.677951     7A1     0.797622     3B1     0.933639
       3B2     0.933639     1A2     1.045063     8A1     1.045063
       9A1     1.295017     4B2     1.372565     4B1     1.372565
      10A1     1.903008    11A1     2.313447     5B2     2.385129
       5B1     2.385129    12A1     2.548908    13A1     2.931692
       2A2     2.931692     6B2     3.055276     6B1     3.055276
       7B2     3.094891     7B1     3.094891    14A1     3.353808
       3A2     3.384721    15A1     3.384721     8B2     3.439018
       8B1     3.439018    16A1     3.798512    17A1     4.048354
       4A2     4.048355     9B2     4.195517     9B1     4.195517
      18A1     5.222245    10B2     5.363153    10B1     5.363153
      19A1     5.444146    20A1     9.880347

    Final Occupation by Irrep:
             A1    A2    B1    B2
    DOCC [     3,    0,    0,    0 ]
    SOCC [     0,    0,    1,    1 ]
    NA   [     3,    0,    1,    1 ]
    NB   [     3,    0,    0,    0 ]

  @DF-UKS Final Energy:   -38.51430680881335

   => Energetics <=

    Nuclear Repulsion Energy =              3.1833112233998286
    One-Electron Energy =                 -59.9026139914058433
    Two-Electron Energy =                  23.0110319349085586
    DFT Exchange-Correlation Energy =      -4.8060359757158926
    Empirical Dispersion Energy =           0.0000000000000000
    VV10 Nonlocal Energy =                  0.0000000000000000
    Total Energy =                        -38.5143068088133518

  UHF NO Occupations:
  HONO-2 :    3 A1 1.9977361
  HONO-1 :    1 B2 1.0000000
  HONO-0 :    1 B1 1.0000000
  LUNO+0 :    4 A1 0.0022639
  LUNO+1 :    5 A1 0.0002919
  LUNO+2 :    6 A1 0.0000011
  LUNO+3 :    7 A1 0.0000000

Computation Completed

Properties will be evaluated at   0.000000,   0.000000,   0.000000 [a0]

Properties computed using the B3LYP density matrix

 Multipole Moments:

 ------------------------------------------------------------------------------------
     Multipole            Electronic (a.u.)      Nuclear  (a.u.)        Total (a.u.)
 ------------------------------------------------------------------------------------

 L = 1.  Multiply by 2.5417464519 to convert [e a0] to [Debye]
 Dipole X            :          0.0000000            0.0000000            0.0000000
 Dipole Y            :          0.0000000            0.0000000            0.0000000
 Dipole Z            :         -0.2292084            0.8625951            0.6333867
 Magnitude           :                                                    0.6333867

 L = 2.  Multiply by 1.3450342976 to convert [e a0^2] to [Debye ang]
 Quadrupole XX       :         -7.9120716            0.0000000           -7.9120716
 Quadrupole XY       :          0.0000000            0.0000000            0.0000000
 Quadrupole XZ       :          0.0000000            0.0000000            0.0000000
 Quadrupole YY       :         -7.9120716            0.0000000           -7.9120716
 Quadrupole YZ       :          0.0000000            0.0000000            0.0000000
 Quadrupole ZZ       :        -11.3981965            3.1513674           -8.2468292
 Traceless XX        :          1.1620416           -1.0504558            0.1115859
 Traceless YY        :          1.1620416           -1.0504558            0.1115859
 Traceless ZZ        :         -2.3240833            2.1009116           -0.2231717

 ------------------------------------------------------------------------------------
  ==> Computing MBIS Charges <==

  Electron Count from Grid (Expected Number):  8.00000 ( 8.00000)
  Difference: -0.00000

  MBIS Charges: (a.u.)
   Center  Symbol  Z      Pop.       Charge
      1       C    6    7.111866   -1.111866
      2       H    1    0.888134    0.111866

  MBIS Dipoles: [e a0]
   Center  Symbol  Z        X           Y           Z
      1       C    6    0.000000    0.000000    0.260627
      2       H    1   -0.000000   -0.000000    0.015878

  MBIS Quadrupoles: [e a0^2]
   Center  Symbol  Z      XX        XY        XZ        YY        YZ        ZZ
      1       C    6   -7.4214    0.0000    0.0000   -7.4214   -0.0000   -8.0156
      2       H    1   -0.4906    0.0000   -0.0000   -0.4906    0.0000   -0.5249

  MBIS Octupoles: [e a0^3]
   Center  Symbol  Z      XXX       XXY       XXZ       XYY       XYZ       XZZ       YYY       YYZ       YZZ       ZZZ
      1       C    6   -0.0000    0.0000    0.5018   -0.0000   -0.0000   -0.0000    0.0000    0.5018   -0.0000   -0.0948
      2       H    1    0.0000   -0.0000   -0.0125    0.0000    0.0000    0.0000    0.0000   -0.0125    0.0000   -0.0542

  MBIS Radial Moments:
   Center  Symbol  Z      [a0^2]      [a0^3]      [a0^4]
      1       C    6   22.858444   65.407855   219.409413
      2       H    1    1.506129    2.838386    6.430451

  MBIS Valence Widths: [a0]
   Center  Symbol  Z     Width
      1       C    6    0.599023
      2       H    1    0.376345

*** tstop() called on Mac.lan at Sun Aug 10 17:34:47 2025
Module time:
	user time   =       3.58 seconds =       0.06 minutes
	system time =       2.20 seconds =       0.04 minutes
	total time  =          1 seconds =       0.02 minutes
Total time:
	user time   =      12.42 seconds =       0.21 minutes
	system time =       4.14 seconds =       0.07 minutes
	total time  =          2 seconds =       0.03 minutes

    Psi4 stopped on: Sunday, 10 August 2025 05:34PM
    Psi4 wall time for execution: 0:00:01.62

*** Psi4 exiting successfully. Buy a developer a beer!
