                               Psi4 1.9.1 release

  ==> Input File <==

--------------------------------------------------------------------------
molecule {
-1 2
N           0.000000           0.000000           0.000000
N           0.000000           0.000000           0.778598
}

set {
basis              cc-pvtz
reference          uks
maxiter            500
DAMPING_PERCENTAGE 1
E_CONVERGENCE      1.0E-8
D_CONVERGENCE      1.0E-8
DIIS_MAX_VECS      400
MBIS_MAXITER       8000
guess              read
}

E, wfn = energy('b3lyp', restart_file='last_wfn', return_wfn=True)
properties('b3lyp','MBIS_CHARGES', wfn=wfn)
wfn.to_file('last_wfn')
--------------------------------------------------------------------------

    Molecular point group: d2h
  Charge       = -1
  Multiplicity = 2
  Basis Set: CC-PVTZ
    Blend: CC-PVTZ
  Basis Set: (CC-PVTZ AUX)
    Blend: CC-PVTZ-JKFIT
  @DF-UKS Final Energy:  -108.66730932410587
    Total Energy =                       -108.6673093241058723
 Dipole X            :          0.0000000            0.0000000            0.0000000
 Dipole Y            :          0.0000000            0.0000000            0.0000000
 Dipole Z            :          0.0000000            0.0000000            0.0000000
 Magnitude           :                                                    0.0000000
    Molecular point group: d2h

    Geometry (in Angstrom), charge = -1, multiplicity = 2:

       Center              X                  Y                   Z               Mass
    ------------   -----------------  -----------------  -----------------  -----------------
         N            0.000000000000     0.000000000000    -0.389299000000    14.003074004430
         N            0.000000000000     0.000000000000     0.389299000000    14.003074004430

  Charge       = -1
  Multiplicity = 2
  Basis Set: CC-PVTZ
    Blend: CC-PVTZ
  Basis Set: (CC-PVTZ AUX)
    Blend: CC-PVTZ-JKFIT

    Orbital Energies [Eh]
    ---------------------

    Alpha Occupied:

       1Ag   -13.969563     1B1u  -13.930212     2Ag    -0.898111
       1B3u   -0.265646     1B2u   -0.260084     2B1u   -0.119954
       3Ag    -0.106287     1B2g    0.383379

    Alpha Virtual:

       1B3g    0.460225     3B1u    0.559757     2B3u    0.620949
       2B2u    0.621350     4Ag     0.644806     5Ag     0.843429
       2B2g    0.889149     2B3g    0.909238     4B1u    1.130621
       1B1g    1.165040     6Ag     1.166056     3B3u    1.635114
       3B2u    1.638338     5B1u    1.678869     1Au     1.698435
       6B1u    1.700459     7Ag     1.866494     3B2g    2.009591
       3B3g    2.016873     4B2u    2.923914     4B3u    2.927665
       7B1u    3.294475     8Ag     3.560222     4B2g    3.764967
       4B3g    3.768617     5B3u    3.826169     5B2u    3.826212
       8B1u    3.860262     2B1g    3.947595     9Ag     3.948278
       6B3u    4.356039     6B2u    4.358239    10Ag     4.575329
       5B2g    4.721690     5B3g    4.723374     2Au     4.729273
       9B1u    4.730709     6B2g    4.739603     6B3g    4.739664
       3B1g    4.849123    11Ag     4.850183    12Ag     5.095197
      10B1u    5.606181     7B2u    5.967508     7B3u    5.969906
       3Au     6.250047    11B1u    6.250853    12B1u    7.807553
       7B2g    8.140314     7B3g    8.141885    13Ag     9.239077
      13B1u   27.393279

    Beta Occupied:

       1Ag   -13.964962     1B1u  -13.925486     2Ag    -0.891350
       1B2u   -0.255632     1B3u   -0.230510     2B1u   -0.094038
       3Ag    -0.089674

    Beta Virtual:

       1B3g    0.469909     1B2g    0.493186     3B1u    0.567873
       2B2u    0.625317     2B3u    0.644905     4Ag     0.653103
       5Ag     0.853212     2B3g    0.916971     2B2g    0.937716
       4B1u    1.153406     1B1g    1.179055     6Ag     1.179418
       3B2u    1.641574     3B3u    1.666150     5B1u    1.688988
       1Au     1.729727     6B1u    1.731611     7Ag     1.870476
       3B3g    2.021566     3B2g    2.041469     4B2u    2.927468
       4B3u    2.949476     7B1u    3.301700     8Ag     3.567923
       4B3g    3.774296     4B2g    3.797791     5B2u    3.839957
       5B3u    3.839966     8B1u    3.878997     2B1g    3.957443
       9Ag     3.957773     6B2u    4.360358     6B3u    4.380891
      10Ag     4.584193     5B3g    4.725021     5B2g    4.746286
       9B1u    4.756171     2Au     4.756281     6B3g    4.763033
       6B2g    4.763505     3B1g    4.871668    11Ag     4.872091
      12Ag     5.101298    10B1u    5.615713     7B2u    5.969058
       7B3u    5.990620     3Au     6.267335    11B1u    6.267440
      12B1u    7.813383     7B3g    8.144950     7B2g    8.166368
      13Ag     9.250520    13B1u   27.399695

    Final Occupation by Irrep:
             Ag   B1g   B2g   B3g    Au   B1u   B2u   B3u
    DOCC [     3,    0,    0,    0,    0,    2,    1,    1 ]
    SOCC [     0,    0,    1,    0,    0,    0,    0,    0 ]
    NA   [     3,    0,    1,    0,    0,    2,    1,    1 ]
    NB   [     3,    0,    0,    0,    0,    2,    1,    1 ]

  @DF-UKS Final Energy:  -108.66730932370569

   => Energetics <=

    Nuclear Repulsion Energy =             33.3030438336985171
    One-Electron Energy =                -216.8410566229762821
    Two-Electron Energy =                  86.6836809946624527
    DFT Exchange-Correlation Energy =     -11.8129775290903858
    Empirical Dispersion Energy =           0.0000000000000000
    VV10 Nonlocal Energy =                  0.0000000000000000
    Total Energy =                       -108.6673093237056946

  UHF NO Occupations:
  HONO-2 :    1B3u 1.9999002
  HONO-1 :    2B1u 1.9998534
  HONO-0 :    1B2g 1.0000000
  LUNO+0 :    3B1u 0.0001466
  LUNO+1 :    2B3u 0.0000998
  LUNO+2 :    4 Ag 0.0000814
  LUNO+3 :    2B2u 0.0000053

Computation Completed

Properties will be evaluated at   0.000000,   0.000000,   0.000000 [a0]

Properties computed using the B3LYP density matrix

 Multipole Moments:

 ------------------------------------------------------------------------------------
     Multipole            Electronic (a.u.)      Nuclear  (a.u.)        Total (a.u.)
 ------------------------------------------------------------------------------------

 L = 1.  Multiply by 2.5417464519 to convert [e a0] to [Debye]
 Dipole X            :          0.0000000            0.0000000            0.0000000
 Dipole Y            :          0.0000000            0.0000000            0.0000000
 Dipole Z            :          0.0000000            0.0000000            0.0000000
 Magnitude           :                                                    0.0000000

 L = 2.  Multiply by 1.3450342976 to convert [e a0^2] to [Debye ang]
 Quadrupole XX       :        -10.2288219            0.0000000          -10.2288219
 Quadrupole XY       :          0.0000000            0.0000000            0.0000000
 Quadrupole XZ       :          0.0000000            0.0000000            0.0000000
 Quadrupole YY       :         -8.2074143            0.0000000           -8.2074143
 Quadrupole YZ       :          0.0000000            0.0000000            0.0000000
 Quadrupole ZZ       :        -20.2428083            7.5769138          -12.6658945
 Traceless XX        :          2.6641929           -2.5256379            0.1385550
 Traceless YY        :          4.6856006           -2.5256379            2.1599626
 Traceless ZZ        :         -7.3497935            5.0512759           -2.2985176

 ------------------------------------------------------------------------------------
  ==> Computing MBIS Charges <==

  Electron Count from Grid (Expected Number): 15.00000 (15.00000)
  Difference:  0.00000

  MBIS Charges: (a.u.)
   Center  Symbol  Z      Pop.       Charge
      1       N    7    7.500001   -0.500001
      2       N    7    7.500001   -0.500001

  MBIS Dipoles: [e a0]
   Center  Symbol  Z        X           Y           Z
      1       N    7    0.000000   -0.000000    0.309977
      2       N    7    0.000000    0.000000   -0.309977

  MBIS Quadrupoles: [e a0^2]
   Center  Symbol  Z      XX        XY        XZ        YY        YZ        ZZ
      1       N    7   -5.1144   -0.0000   -0.0000   -4.1037   -0.0000   -5.6063
      2       N    7   -5.1144    0.0000    0.0000   -4.1037    0.0000   -5.6063

  MBIS Octupoles: [e a0^3]
   Center  Symbol  Z      XXX       XXY       XXZ       XYY       XYZ       XZZ       YYY       YYZ       YZZ       ZZZ
      1       N    7    0.0000    0.0000    1.1824   -0.0000    0.0000    0.0000    0.0000    0.5354    0.0000    1.0456
      2       N    7    0.0000    0.0000   -1.1824    0.0000   -0.0000    0.0000    0.0000   -0.5354    0.0000   -1.0456

  MBIS Radial Moments:
   Center  Symbol  Z      [a0^2]      [a0^3]      [a0^4]
      1       N    7   14.824380   34.533648   96.825470
      2       N    7   14.824380   34.533648   96.825470

  MBIS Valence Widths: [a0]
   Center  Symbol  Z     Width
      1       N    7    0.457241
      2       N    7    0.457241

*** tstop() called on Mac.lan at Sun Aug 10 17:32:44 2025
Module time:
	user time   =       4.55 seconds =       0.08 minutes
	system time =       2.00 seconds =       0.03 minutes
	total time  =          0 seconds =       0.00 minutes
Total time:
	user time   =      17.43 seconds =       0.29 minutes
	system time =       4.41 seconds =       0.07 minutes
	total time  =          2 seconds =       0.03 minutes

    Psi4 stopped on: Sunday, 10 August 2025 05:32PM
    Psi4 wall time for execution: 0:00:02.12

*** Psi4 exiting successfully. Buy a developer a beer!
