                               Psi4 1.9.1 release

  ==> Input File <==

--------------------------------------------------------------------------
molecule {
-1 3
O           0.000000           0.000000           0.000000
N           0.000000           0.000000           1.069577
}

set {
basis              cc-pvtz
reference          uks
maxiter            500
DAMPING_PERCENTAGE 1
E_CONVERGENCE      1.0E-8
D_CONVERGENCE      1.0E-8
DIIS_MAX_VECS      400
MBIS_MAXITER       8000
guess              read
}

E, wfn = energy('b3lyp', restart_file='last_wfn', return_wfn=True)
properties('b3lyp','MBIS_CHARGES', wfn=wfn)
wfn.to_file('last_wfn')
--------------------------------------------------------------------------

    Molecular point group: c2v
  Charge       = -1
  Multiplicity = 3
  Basis Set: CC-PVTZ
    Blend: CC-PVTZ
  Basis Set: (CC-PVTZ AUX)
    Blend: CC-PVTZ-JKFIT
  @DF-UKS Final Energy:  -129.86387798273171
    Total Energy =                       -129.8638779827317080
 Dipole X            :          0.0000000            0.0000000            0.0000000
 Dipole Y            :          0.0000000            0.0000000            0.0000000
 Dipole Z            :         -0.5086059           -0.0040555           -0.5126613
 Magnitude           :                                                    0.5126613
    Molecular point group: c2v

    Geometry (in Angstrom), charge = -1, multiplicity = 3:

       Center              X                  Y                   Z               Mass
    ------------   -----------------  -----------------  -----------------  -----------------
         O            0.000000000000     0.000000000000    -0.499279004075    15.994914619570
         N            0.000000000000     0.000000000000     0.570297995925    14.003074004430

  Charge       = -1
  Multiplicity = 3
  Basis Set: CC-PVTZ
    Blend: CC-PVTZ
  Basis Set: (CC-PVTZ AUX)
    Blend: CC-PVTZ-JKFIT

    Orbital Energies [Eh]
    ---------------------

    Alpha Occupied:

       1A1   -18.828041     2A1   -13.985378     3A1    -0.905817
       4A1    -0.301587     1B1    -0.181053     1B2    -0.181053
       5A1    -0.111267     2B1     0.198542     2B2     0.198542

    Alpha Virtual:

       6A1     0.523147     3B2     0.716420     3B1     0.716420
       7A1     0.743782     8A1     0.844589     4B1     0.899132
       4B2     0.899132     9A1     1.069829    10A1     1.274318
       1A2     1.274318    11A1     1.495995     5B2     1.534912
       5B1     1.534912     2A2     1.897707    12A1     1.897707
      13A1     2.083049     6B1     2.380841     6B2     2.380841
      14A1     2.608504     7B1     3.203788     7B2     3.203788
      15A1     3.485484     8B2     3.985116     8B1     3.985116
      16A1     4.138590     9B2     4.157472     9B1     4.157472
       3A2     4.178572    17A1     4.178572    10B1     4.475839
      10B2     4.475839     4A2     4.762950    18A1     4.762951
      19A1     4.835572    11B1     5.152645    11B2     5.152645
      20A1     5.417856    12B2     5.447811    12B1     5.447811
       5A2     6.088445    21A1     6.088445    22A1     6.545084
       6A2     6.545084    13B1     6.896798    13B2     6.896798
      23A1     6.930217    24A1     7.429326    14B1     7.573778
      14B2     7.573778    25A1     7.795937    26A1    15.922199

    Beta Occupied:

       1A1   -18.807728     2A1   -13.960511     3A1    -0.869162
       4A1    -0.239441     1B1    -0.108585     1B2    -0.108585
       5A1    -0.062217

    Beta Virtual:

       2B1     0.359255     2B2     0.359255     6A1     0.533292
       3B2     0.757611     3B1     0.757611     7A1     0.767397
       8A1     0.866833     4B1     0.940279     4B2     0.940279
       9A1     1.108661    10A1     1.320835     1A2     1.320835
      11A1     1.515096     5B2     1.569352     5B1     1.569352
       2A2     1.945120    12A1     1.945121    13A1     2.109818
       6B1     2.413310     6B2     2.413310    14A1     2.634205
       7B1     3.273499     7B2     3.273499    15A1     3.512847
       8B2     4.037133     8B1     4.037133    16A1     4.170148
      17A1     4.216237     3A2     4.216237     9B2     4.231188
       9B1     4.231188    10B1     4.513822    10B2     4.513822
       4A2     4.866303    18A1     4.866304    19A1     4.868462
      11B1     5.192135    11B2     5.192135    20A1     5.447903
      12B2     5.496776    12B1     5.496776     5A2     6.127636
      21A1     6.127637     6A2     6.616107    22A1     6.616107
      13B1     6.935988    13B2     6.935988    23A1     6.950005
      24A1     7.462044    14B1     7.607618    14B2     7.607618
      25A1     7.825093    26A1    15.955671

    Final Occupation by Irrep:
             A1    A2    B1    B2
    DOCC [     5,    0,    1,    1 ]
    SOCC [     0,    0,    1,    1 ]
    NA   [     5,    0,    2,    2 ]
    NB   [     5,    0,    1,    1 ]

  @DF-UKS Final Energy:  -129.86387798286344

   => Energetics <=

    Nuclear Repulsion Energy =             27.7062089008271499
    One-Electron Energy =                -237.6819374789310757
    Two-Electron Energy =                  92.9295017850642182
    DFT Exchange-Correlation Energy =     -12.8176511898237173
    Empirical Dispersion Energy =           0.0000000000000000
    VV10 Nonlocal Energy =                  0.0000000000000000
    Total Energy =                       -129.8638779828634426

  UHF NO Occupations:
  HONO-2 :    1 B1 1.9991525
  HONO-1 :    2 B2 1.0000000
  HONO-0 :    2 B1 1.0000000
  LUNO+0 :    3 B2 0.0008475
  LUNO+1 :    3 B1 0.0008475
  LUNO+2 :    6 A1 0.0008238
  LUNO+3 :    7 A1 0.0001934

Computation Completed

Properties will be evaluated at   0.000000,   0.000000,   0.000000 [a0]

Properties computed using the B3LYP density matrix

 Multipole Moments:

 ------------------------------------------------------------------------------------
     Multipole            Electronic (a.u.)      Nuclear  (a.u.)        Total (a.u.)
 ------------------------------------------------------------------------------------

 L = 1.  Multiply by 2.5417464519 to convert [e a0] to [Debye]
 Dipole X            :          0.0000000            0.0000000            0.0000000
 Dipole Y            :          0.0000000            0.0000000            0.0000000
 Dipole Z            :         -0.5086059           -0.0040555           -0.5126613
 Magnitude           :                                                    0.5126613

 L = 2.  Multiply by 1.3450342976 to convert [e a0^2] to [Debye ang]
 Quadrupole XX       :         -9.4133880            0.0000000           -9.4133880
 Quadrupole XY       :          0.0000000            0.0000000            0.0000000
 Quadrupole XZ       :          0.0000000            0.0000000            0.0000000
 Quadrupole YY       :         -9.4133880            0.0000000           -9.4133880
 Quadrupole YZ       :          0.0000000            0.0000000            0.0000000
 Quadrupole ZZ       :        -27.3479681           15.2517137          -12.0962544
 Traceless XX        :          5.9781934           -5.0839046            0.8942888
 Traceless YY        :          5.9781934           -5.0839046            0.8942888
 Traceless ZZ        :        -11.9563868           10.1678091           -1.7885776

 ------------------------------------------------------------------------------------
  ==> Computing MBIS Charges <==

  Electron Count from Grid (Expected Number): 16.00000 (16.00000)
  Difference:  0.00000

  MBIS Charges: (a.u.)
   Center  Symbol  Z      Pop.       Charge
      1       O    8    8.318654   -0.318654
      2       N    7    7.681347   -0.681347

  MBIS Dipoles: [e a0]
   Center  Symbol  Z        X           Y           Z
      1       O    8    0.000000   -0.000000    0.244181
      2       N    7    0.000000   -0.000000   -0.323199

  MBIS Quadrupoles: [e a0^2]
   Center  Symbol  Z      XX        XY        XZ        YY        YZ        ZZ
      1       O    8   -4.0139   -0.0000   -0.0000   -4.0139    0.0000   -4.3075
      2       N    7   -5.3995   -0.0000    0.0000   -5.3995   -0.0000   -5.5564

  MBIS Octupoles: [e a0^3]
   Center  Symbol  Z      XXX       XXY       XXZ       XYY       XYZ       XZZ       YYY       YYZ       YZZ       ZZZ
      1       O    8   -0.0000   -0.0000    0.3465    0.0000    0.0000   -0.0000   -0.0000    0.3465   -0.0000    0.3894
      2       N    7    0.0000   -0.0000   -0.6391    0.0000   -0.0000    0.0000   -0.0000   -0.6391   -0.0000    0.0622

  MBIS Radial Moments:
   Center  Symbol  Z      [a0^2]      [a0^3]      [a0^4]
      1       O    8   12.335319   23.911976   55.658403
      2       N    7   16.355297   38.094648   105.030807

  MBIS Valence Widths: [a0]
   Center  Symbol  Z     Width
      1       O    8    0.392592
      2       N    7    0.478348

*** tstop() called on Mac.lan at Sun Aug 10 17:44:35 2025
Module time:
	user time   =       4.07 seconds =       0.07 minutes
	system time =       1.93 seconds =       0.03 minutes
	total time  =          0 seconds =       0.00 minutes
Total time:
	user time   =      17.73 seconds =       0.30 minutes
	system time =       3.99 seconds =       0.07 minutes
	total time  =          2 seconds =       0.03 minutes

    Psi4 stopped on: Sunday, 10 August 2025 05:44PM
    Psi4 wall time for execution: 0:00:02.10

*** Psi4 exiting successfully. Buy a developer a beer!
