                               Psi4 1.9.1 release

  ==> Input File <==

--------------------------------------------------------------------------
molecule {
-1 2
C           0.000000           0.000000           0.000000
C           0.000000           0.000000           1.855283
}

set {
basis              cc-pvtz
reference          uks
maxiter            500
DAMPING_PERCENTAGE 1
E_CONVERGENCE      1.0E-8
D_CONVERGENCE      1.0E-8
DIIS_MAX_VECS      400
MBIS_MAXITER       8000
guess              read
}

E, wfn = energy('b3lyp', restart_file='last_wfn', return_wfn=True)
properties('b3lyp','MBIS_CHARGES', wfn=wfn)
wfn.to_file('last_wfn')
--------------------------------------------------------------------------

    Molecular point group: d2h
  Charge       = -1
  Multiplicity = 2
  Basis Set: CC-PVTZ
    Blend: CC-PVTZ
  Basis Set: (CC-PVTZ AUX)
    Blend: CC-PVTZ-JKFIT
  @DF-UKS Final Energy:   -75.88630643083054
    Total Energy =                        -75.8863064308305439
 Dipole X            :          0.0000000            0.0000000            0.0000000
 Dipole Y            :          0.0000000            0.0000000            0.0000000
 Dipole Z            :          0.0000000            0.0000000            0.0000000
 Magnitude           :                                                    0.0000000
    Molecular point group: d2h

    Geometry (in Angstrom), charge = -1, multiplicity = 2:

       Center              X                  Y                   Z               Mass
    ------------   -----------------  -----------------  -----------------  -----------------
         C            0.000000000000     0.000000000000    -0.927641500000    12.000000000000
         C            0.000000000000     0.000000000000     0.927641500000    12.000000000000

  Charge       = -1
  Multiplicity = 2
  Basis Set: CC-PVTZ
    Blend: CC-PVTZ
  Basis Set: (CC-PVTZ AUX)
    Blend: CC-PVTZ-JKFIT

    Orbital Energies [Eh]
    ---------------------

    Alpha Occupied:

       1Ag   -10.019562     1B1u  -10.019449     2Ag    -0.365737
       2B1u   -0.217200     3Ag    -0.039329     1B2u    0.021400
       1B3u    0.021400

    Alpha Virtual:

       1B3g    0.167636     1B2g    0.167636     3B1u    0.297689
       4B1u    0.487224     4Ag     0.521192     2B2u    0.540477
       2B3u    0.540477     2B2g    0.584424     2B3g    0.584424
       5Ag     0.610135     5B1u    0.867709     3B2u    0.868642
       3B3u    0.868642     6Ag     0.868771     1B1g    0.868771
       6B1u    1.031298     1Au     1.031298     7Ag     1.237818
       3B2g    1.279576     3B3g    1.279576     7B1u    1.361488
       4B2u    2.156592     4B3u    2.156592     8Ag     2.179146
       4B3g    2.281968     4B2g    2.281968     8B1u    2.675862
       5B2u    2.709009     5B3u    2.709009     9Ag     2.724759
      10Ag     2.763720     2B1g    2.763721     6B2u    2.923426
       6B3u    2.923426     5B3g    2.984972     5B2g    2.984972
       9B1u    3.130435     2Au     3.130438    11Ag     3.196812
       3B1g    3.196820     6B2g    3.268958     6B3g    3.268958
       7B2u    3.297730     7B3u    3.297730    10B1u    3.304304
       3Au     3.304311    11B1u    3.333986    12Ag     3.650980
      12B1u    3.735283     7B2g    3.792245     7B3g    3.792245
      13Ag     4.237322    13B1u    5.400063

    Beta Occupied:

       1Ag   -10.012429     1B1u  -10.012375     2Ag    -0.334074
       2B1u   -0.173039     1B2u    0.028473     1B3u    0.028473

    Beta Virtual:

       3Ag     0.089153     1B3g    0.176261     1B2g    0.176261
       3B1u    0.327894     4B1u    0.535628     2B2u    0.544215
       2B3u    0.544215     4Ag     0.551282     2B2g    0.587800
       2B3g    0.587800     5Ag     0.622970     6Ag     0.870243
       1B1g    0.870243     5B1u    0.876979     3B2u    0.893764
       3B3u    0.893764     6B1u    1.032822     1Au     1.032822
       7Ag     1.269999     3B2g    1.300455     3B3g    1.300455
       7B1u    1.398313     4B2u    2.166405     4B3u    2.166405
       8Ag     2.226441     4B2g    2.285702     4B3g    2.285702
       8B1u    2.707410     5B2u    2.738151     5B3u    2.738151
       9Ag     2.763869    10Ag     2.785146     2B1g    2.785147
       6B2u    2.922720     6B3u    2.922720     5B3g    2.984001
       5B2g    2.984001     9B1u    3.136835     2Au     3.136838
      11Ag     3.197176     3B1g    3.197184     6B2g    3.301442
       6B3g    3.301442    10B1u    3.316816     3Au     3.316823
       7B2u    3.335444     7B3u    3.335444    11B1u    3.387745
      12Ag     3.705485    12B1u    3.772103     7B2g    3.827813
       7B3g    3.827813    13Ag     4.251694    13B1u    5.422573

    Final Occupation by Irrep:
             Ag   B1g   B2g   B3g    Au   B1u   B2u   B3u
    DOCC [     2,    0,    0,    0,    0,    2,    1,    1 ]
    SOCC [     1,    0,    0,    0,    0,    0,    0,    0 ]
    NA   [     3,    0,    0,    0,    0,    2,    1,    1 ]
    NB   [     2,    0,    0,    0,    0,    2,    1,    1 ]

  @DF-UKS Final Energy:   -75.88630643098038

   => Energetics <=

    Nuclear Repulsion Energy =             10.2681798863677383
    One-Electron Energy =                -125.0227803408600664
    Two-Electron Energy =                  47.4470432837449110
    DFT Exchange-Correlation Energy =      -8.5787492602329714
    Empirical Dispersion Energy =           0.0000000000000000
    VV10 Nonlocal Energy =                  0.0000000000000000
    Total Energy =                        -75.8863064309803974

  UHF NO Occupations:
  HONO-2 :    2 Ag 1.9995591
  HONO-1 :    2B1u 1.9968770
  HONO-0 :    3 Ag 1.0000000
  LUNO+0 :    3B1u 0.0031230
  LUNO+1 :    4 Ag 0.0004409
  LUNO+2 :    2B3u 0.0000920
  LUNO+3 :    2B2u 0.0000920

Computation Completed

Properties will be evaluated at   0.000000,   0.000000,   0.000000 [a0]

Properties computed using the B3LYP density matrix

 Multipole Moments:

 ------------------------------------------------------------------------------------
     Multipole            Electronic (a.u.)      Nuclear  (a.u.)        Total (a.u.)
 ------------------------------------------------------------------------------------

 L = 1.  Multiply by 2.5417464519 to convert [e a0] to [Debye]
 Dipole X            :          0.0000000            0.0000000            0.0000000
 Dipole Y            :          0.0000000            0.0000000            0.0000000
 Dipole Z            :          0.0000000            0.0000000            0.0000000
 Magnitude           :                                                    0.0000000

 L = 2.  Multiply by 1.3450342976 to convert [e a0^2] to [Debye ang]
 Quadrupole XX       :        -12.7973162            0.0000000          -12.7973162
 Quadrupole XY       :          0.0000000            0.0000000            0.0000000
 Quadrupole XZ       :          0.0000000            0.0000000            0.0000000
 Quadrupole YY       :        -12.7973162            0.0000000          -12.7973162
 Quadrupole YZ       :          0.0000000            0.0000000            0.0000000
 Quadrupole ZZ       :        -51.0773272           36.8756190          -14.2017082
 Traceless XX        :         12.7600036          -12.2918730            0.4681306
 Traceless YY        :         12.7600036          -12.2918730            0.4681306
 Traceless ZZ        :        -25.5200073           24.5837460           -0.9362613

 ------------------------------------------------------------------------------------
  ==> Computing MBIS Charges <==

  Electron Count from Grid (Expected Number): 13.00000 (13.00000)
  Difference: -0.00000

  MBIS Charges: (a.u.)
   Center  Symbol  Z      Pop.       Charge
      1       C    6    6.500000   -0.500000
      2       C    6    6.500000   -0.500000

  MBIS Dipoles: [e a0]
   Center  Symbol  Z        X           Y           Z
      1       C    6   -0.000000    0.000000   -0.156642
      2       C    6   -0.000000    0.000000    0.156642

  MBIS Quadrupoles: [e a0^2]
   Center  Symbol  Z      XX        XY        XZ        YY        YZ        ZZ
      1       C    6   -6.3987    0.0000   -0.0000   -6.3987   -0.0000   -6.1136
      2       C    6   -6.3987    0.0000   -0.0000   -6.3987    0.0000   -6.1136

  MBIS Octupoles: [e a0^3]
   Center  Symbol  Z      XXX       XXY       XXZ       XYY       XYZ       XZZ       YYY       YYZ       YZZ       ZZZ
      1       C    6   -0.0000   -0.0000   -0.7081   -0.0000   -0.0000   -0.0000    0.0000   -0.7081    0.0000   -1.6393
      2       C    6   -0.0000   -0.0000    0.7081   -0.0000    0.0000   -0.0000    0.0000    0.7081    0.0000    1.6393

  MBIS Radial Moments:
   Center  Symbol  Z      [a0^2]      [a0^3]      [a0^4]
      1       C    6   18.910870   52.251744   170.338748
      2       C    6   18.910870   52.251744   170.338748

  MBIS Valence Widths: [a0]
   Center  Symbol  Z     Width
      1       C    6    0.578678
      2       C    6    0.578678

*** tstop() called on Mac.lan at Sun Aug 10 17:31:53 2025
Module time:
	user time   =       4.04 seconds =       0.07 minutes
	system time =       1.76 seconds =       0.03 minutes
	total time  =          1 seconds =       0.02 minutes
Total time:
	user time   =      17.69 seconds =       0.29 minutes
	system time =       3.76 seconds =       0.06 minutes
	total time  =          2 seconds =       0.03 minutes

    Psi4 stopped on: Sunday, 10 August 2025 05:31PM
    Psi4 wall time for execution: 0:00:02.09

*** Psi4 exiting successfully. Buy a developer a beer!
