                               Psi4 1.9.1 release

  ==> Input File <==

--------------------------------------------------------------------------
molecule {
-1 2
H           0.000000           0.000000           0.000000
H           0.000000           0.000000           0.598471
}

set {
basis              cc-pvtz
reference          uks
maxiter            500
DAMPING_PERCENTAGE 1
E_CONVERGENCE      1.0E-8
D_CONVERGENCE      1.0E-8
DIIS_MAX_VECS      400
MBIS_MAXITER       8000
guess              read
}

E, wfn = energy('b3lyp', restart_file='last_wfn', return_wfn=True)
properties('b3lyp','MBIS_CHARGES', wfn=wfn)
wfn.to_file('last_wfn')
--------------------------------------------------------------------------

    Molecular point group: d2h
  Charge       = -1
  Multiplicity = 2
  Basis Set: CC-PVTZ
    Blend: CC-PVTZ
  Basis Set: (CC-PVTZ AUX)
    Blend: CC-PVTZ-JKFIT
  @DF-UKS Final Energy:    -1.00860194521274
    Total Energy =                         -1.0086019452127362
 Dipole X            :          0.0000000            0.0000000            0.0000000
 Dipole Y            :          0.0000000            0.0000000            0.0000000
 Dipole Z            :          0.0000000            0.0000000            0.0000000
 Magnitude           :                                                    0.0000000
    Molecular point group: d2h

    Geometry (in Angstrom), charge = -1, multiplicity = 2:

       Center              X                  Y                   Z               Mass
    ------------   -----------------  -----------------  -----------------  -----------------
         H            0.000000000000     0.000000000000    -0.299235500000     1.007825032230
         H            0.000000000000     0.000000000000     0.299235500000     1.007825032230

  Charge       = -1
  Multiplicity = 2
  Basis Set: CC-PVTZ
    Blend: CC-PVTZ
  Basis Set: (CC-PVTZ AUX)
    Blend: CC-PVTZ-JKFIT

    Orbital Energies [Eh]
    ---------------------

    Alpha Occupied:

       1Ag    -0.177792     1B1u    0.231061

    Alpha Virtual:

       2Ag     0.400886     2B1u    0.768901     1B2u    0.811672
       1B3u    0.811672     3Ag     1.210874     1B3g    1.228460
       1B2g    1.228460     3B1u    1.664351     4Ag     2.287237
       4B1u    2.489835     5Ag     3.205052     1B1g    3.205052
       2B2u    3.435316     2B3u    3.435316     6Ag     3.692213
       2B2g    3.750779     2B3g    3.750779     1Au     4.237675
       5B1u    4.237675     3B2u    4.254959     3B3u    4.254959
       6B1u    5.061319     3B2g    6.311598     3B3g    6.311598
       7Ag     6.352801     7B1u    7.961538

    Beta Occupied:

       1Ag    -0.167538

    Beta Virtual:

       1B1u    0.326987     2Ag     0.422033     2B1u    0.796511
       1B3u    0.813347     1B2u    0.813347     1B3g    1.247833
       1B2g    1.247833     3Ag     1.248545     3B1u    1.681183
       4Ag     2.290582     4B1u    2.515448     5Ag     3.205509
       1B1g    3.205509     2B2u    3.434513     2B3u    3.434513
       6Ag     3.718600     2B2g    3.770006     2B3g    3.770006
       5B1u    4.245422     1Au     4.245422     3B2u    4.269702
       3B3u    4.269702     6B1u    5.079621     3B2g    6.321321
       3B3g    6.321321     7Ag     6.363120     7B1u    7.972770

    Final Occupation by Irrep:
             Ag   B1g   B2g   B3g    Au   B1u   B2u   B3u
    DOCC [     1,    0,    0,    0,    0,    0,    0,    0 ]
    SOCC [     0,    0,    0,    0,    0,    1,    0,    0 ]
    NA   [     1,    0,    0,    0,    0,    1,    0,    0 ]
    NB   [     1,    0,    0,    0,    0,    0,    0,    0 ]

  @DF-UKS Final Energy:    -1.00860194569319

   => Energetics <=

    Nuclear Repulsion Energy =              0.8842152930885543
    One-Electron Energy =                  -3.1210603964206594
    Two-Electron Energy =                   1.9891729213222427
    DFT Exchange-Correlation Energy =      -0.7609297636833235
    Empirical Dispersion Energy =           0.0000000000000000
    VV10 Nonlocal Energy =                  0.0000000000000000
    Total Energy =                         -1.0086019456931861

  UHF NO Occupations:
  HONO-1 :    1 Ag 1.9997453
  HONO-0 :    1B1u 1.0000000
  LUNO+0 :    2 Ag 0.0002547
  LUNO+1 :    3 Ag 0.0000000
  LUNO+2 :    2B1u 0.0000000
  LUNO+3 :    3B1u 0.0000000

Computation Completed

Properties will be evaluated at   0.000000,   0.000000,   0.000000 [a0]

Properties computed using the B3LYP density matrix

 Multipole Moments:

 ------------------------------------------------------------------------------------
     Multipole            Electronic (a.u.)      Nuclear  (a.u.)        Total (a.u.)
 ------------------------------------------------------------------------------------

 L = 1.  Multiply by 2.5417464519 to convert [e a0] to [Debye]
 Dipole X            :          0.0000000            0.0000000            0.0000000
 Dipole Y            :          0.0000000            0.0000000            0.0000000
 Dipole Z            :          0.0000000            0.0000000            0.0000000
 Magnitude           :                                                    0.0000000

 L = 2.  Multiply by 1.3450342976 to convert [e a0^2] to [Debye ang]
 Quadrupole XX       :         -4.1060691            0.0000000           -4.1060691
 Quadrupole XY       :          0.0000000            0.0000000            0.0000000
 Quadrupole XZ       :          0.0000000            0.0000000            0.0000000
 Quadrupole YY       :         -4.1060691            0.0000000           -4.1060691
 Quadrupole YZ       :          0.0000000            0.0000000            0.0000000
 Quadrupole ZZ       :         -9.9899095            0.6395197           -9.3503898
 Traceless XX        :          1.9612801           -0.2131732            1.7481069
 Traceless YY        :          1.9612801           -0.2131732            1.7481069
 Traceless ZZ        :         -3.9225603            0.4263465           -3.4962138

 ------------------------------------------------------------------------------------
  ==> Computing MBIS Charges <==

  Electron Count from Grid (Expected Number):  3.00000 ( 3.00000)
  Difference:  0.00000

  MBIS Charges: (a.u.)
   Center  Symbol  Z      Pop.       Charge
      1       H    1    1.500000   -0.500000
      2       H    1    1.500000   -0.500000

  MBIS Dipoles: [e a0]
   Center  Symbol  Z        X           Y           Z
      1       H    1    0.000000   -0.000000    0.317186
      2       H    1    0.000000   -0.000000   -0.317186

  MBIS Quadrupoles: [e a0^2]
   Center  Symbol  Z      XX        XY        XZ        YY        YZ        ZZ
      1       H    1   -2.0530   -0.0000    0.0000   -2.0530    0.0000   -4.1566
      2       H    1   -2.0530    0.0000    0.0000   -2.0530   -0.0000   -4.1566

  MBIS Octupoles: [e a0^3]
   Center  Symbol  Z      XXX       XXY       XXZ       XYY       XYZ       XZZ       YYY       YYZ       YZZ       ZZZ
      1       H    1   -0.0000    0.0000    0.9066    0.0000   -0.0000    0.0000   -0.0000    0.9066   -0.0000    2.1417
      2       H    1    0.0000   -0.0000   -0.9066   -0.0000    0.0000    0.0000    0.0000   -0.9066   -0.0000   -2.1417

  MBIS Radial Moments:
   Center  Symbol  Z      [a0^2]      [a0^3]      [a0^4]
      1       H    1    8.262663   28.954803   116.407398
      2       H    1    8.262663   28.954803   116.407398

  MBIS Valence Widths: [a0]
   Center  Symbol  Z     Width
      1       H    1    0.652793
      2       H    1    0.652793

*** tstop() called on Mac.lan at Sun Aug 10 17:26:00 2025
Module time:
	user time   =       0.56 seconds =       0.01 minutes
	system time =       1.30 seconds =       0.02 minutes
	total time  =          1 seconds =       0.02 minutes
Total time:
	user time   =       1.72 seconds =       0.03 minutes
	system time =       3.36 seconds =       0.06 minutes
	total time  =          1 seconds =       0.02 minutes

    Psi4 stopped on: Sunday, 10 August 2025 05:26PM
    Psi4 wall time for execution: 0:00:00.83

*** Psi4 exiting successfully. Buy a developer a beer!
