                               Psi4 1.9.1 release

  ==> Input File <==

--------------------------------------------------------------------------
molecule {
-1 3
O           0.000000           0.000000           0.000000
N           0.000000           0.000000           0.473929
}

set {
basis              cc-pvtz
reference          uks
maxiter            500
DAMPING_PERCENTAGE 1
E_CONVERGENCE      1.0E-8
D_CONVERGENCE      1.0E-8
DIIS_MAX_VECS      400
MBIS_MAXITER       8000
guess              read
}

E, wfn = energy('b3lyp', restart_file='last_wfn', return_wfn=True)
properties('b3lyp','MBIS_CHARGES', wfn=wfn)
wfn.to_file('last_wfn')
--------------------------------------------------------------------------

    Molecular point group: c2v
  Charge       = -1
  Multiplicity = 3
  Basis Set: CC-PVTZ
    Blend: CC-PVTZ
  Basis Set: (CC-PVTZ AUX)
    Blend: CC-PVTZ-JKFIT
  @DF-UKS Final Energy:  -122.59261831292939
    Total Energy =                       -122.5926183129293889
 Dipole X            :          0.0000000            0.0000000            0.0000000
 Dipole Y            :          0.0000000            0.0000000            0.0000000
 Dipole Z            :         -2.0062867           -0.0017970           -2.0080837
 Magnitude           :                                                    2.0080837
    Molecular point group: c2v

    Geometry (in Angstrom), charge = -1, multiplicity = 3:

       Center              X                  Y                   Z               Mass
    ------------   -----------------  -----------------  -----------------  -----------------
         O            0.000000000000     0.000000000000    -0.221230261236    15.994914619570
         N            0.000000000000     0.000000000000     0.252698738764    14.003074004430

  Charge       = -1
  Multiplicity = 3
  Basis Set: CC-PVTZ
    Blend: CC-PVTZ
  Basis Set: (CC-PVTZ AUX)
    Blend: CC-PVTZ-JKFIT

    Orbital Energies [Eh]
    ---------------------

    Alpha Occupied:

       1A1   -19.468286     2A1   -14.643120     3A1    -1.070173
       1B1    -0.968043     1B2    -0.968043     4A1    -0.333782
       5A1    -0.165797     2B1     0.392919     2B2     0.392919

    Alpha Virtual:

       6A1     0.399634     3B1     0.571437     3B2     0.571437
       7A1     0.630762     8A1     0.787574     4B1     1.086416
       4B2     1.086416     1A2     1.142876     9A1     1.142876
      10A1     1.542048     5B1     1.847060     5B2     1.847060
      11A1     1.871114     6B1     1.972544     6B2     1.972544
      12A1     2.003416     2A2     2.003417    13A1     2.143446
       7B2     3.115142     7B1     3.115142    14A1     3.220807
       8B1     3.945981     8B2     3.945981    15A1     4.098432
      16A1     4.223391     3A2     4.223391     9B2     4.451906
       9B1     4.451906    17A1     4.576571    18A1     4.671572
       4A2     4.671572    10B2     4.859009    10B1     4.859009
      19A1     5.760529    11B2     5.896786    11B1     5.896786
      12B2     6.042492    12B1     6.042492     5A2     6.098157
      20A1     6.098157    21A1     7.055207    22A1     8.257017
      13B2     8.389136    13B1     8.389136     6A2     8.871627
      23A1     8.871628    24A1     8.940549    14B2    10.564951
      14B1    10.564951    25A1    13.294766    26A1    33.318740

    Beta Occupied:

       1A1   -19.460499     2A1   -14.644055     3A1    -1.060106
       1B1    -0.954010     1B2    -0.954010     4A1    -0.329212
       5A1    -0.152020

    Beta Virtual:

       6A1     0.442509     2B1     0.529220     2B2     0.529220
       3B1     0.582127     3B2     0.582127     7A1     0.660318
       8A1     0.828921     4B1     1.104982     4B2     1.104982
       9A1     1.180491     1A2     1.180491    10A1     1.563060
       5B2     1.877239     5B1     1.877239    11A1     1.877959
       6B1     1.990056     6B2     1.990056    12A1     2.035106
       2A2     2.035106    13A1     2.149487     7B2     3.121930
       7B1     3.121930    14A1     3.234595     8B1     3.952762
       8B2     3.952762    15A1     4.102800    16A1     4.232747
       3A2     4.232747     9B2     4.469162     9B1     4.469162
      17A1     4.578407    18A1     4.683169     4A2     4.683169
      10B2     4.868284    10B1     4.868284    19A1     5.766377
      11B2     5.903168    11B1     5.903168    12B2     6.047652
      12B1     6.047652     5A2     6.107060    20A1     6.107060
      21A1     7.058734    22A1     8.268899    13B2     8.396549
      13B1     8.396549     6A2     8.883153    23A1     8.883154
      24A1     8.945803    14B2    10.573779    14B1    10.573779
      25A1    13.296550    26A1    33.324409

    Final Occupation by Irrep:
             A1    A2    B1    B2
    DOCC [     5,    0,    1,    1 ]
    SOCC [     0,    0,    1,    1 ]
    NA   [     5,    0,    2,    2 ]
    NB   [     5,    0,    1,    1 ]

  @DF-UKS Final Energy:  -122.59261831326873

   => Energetics <=

    Nuclear Repulsion Energy =             62.5281926143367457
    One-Electron Energy =                -285.8616741595016606
    Two-Electron Energy =                 114.7121856704158347
    DFT Exchange-Correlation Energy =     -13.9713224385196568
    Empirical Dispersion Energy =           0.0000000000000000
    VV10 Nonlocal Energy =                  0.0000000000000000
    Total Energy =                       -122.5926183132687299

  UHF NO Occupations:
  HONO-2 :    5 A1 1.9984836
  HONO-1 :    2 B1 1.0000000
  HONO-0 :    2 B2 1.0000000
  LUNO+0 :    6 A1 0.0015164
  LUNO+1 :    3 B2 0.0000162
  LUNO+2 :    3 B1 0.0000162
  LUNO+3 :    7 A1 0.0000153

Computation Completed

Properties will be evaluated at   0.000000,   0.000000,   0.000000 [a0]

Properties computed using the B3LYP density matrix

 Multipole Moments:

 ------------------------------------------------------------------------------------
     Multipole            Electronic (a.u.)      Nuclear  (a.u.)        Total (a.u.)
 ------------------------------------------------------------------------------------

 L = 1.  Multiply by 2.5417464519 to convert [e a0] to [Debye]
 Dipole X            :          0.0000000            0.0000000            0.0000000
 Dipole Y            :          0.0000000            0.0000000            0.0000000
 Dipole Z            :         -2.0062867           -0.0017970           -2.0080837
 Magnitude           :                                                    2.0080837

 L = 2.  Multiply by 1.3450342976 to convert [e a0^2] to [Debye ang]
 Quadrupole XX       :        -11.5560434            0.0000000          -11.5560434
 Quadrupole XY       :          0.0000000            0.0000000            0.0000000
 Quadrupole XZ       :          0.0000000            0.0000000            0.0000000
 Quadrupole YY       :        -11.5560434            0.0000000          -11.5560434
 Quadrupole YZ       :          0.0000000            0.0000000            0.0000000
 Quadrupole ZZ       :        -13.8168795            2.9944778          -10.8224017
 Traceless XX        :          0.7536120           -0.9981593           -0.2445472
 Traceless YY        :          0.7536120           -0.9981593           -0.2445472
 Traceless ZZ        :         -1.5072241            1.9963186            0.4890945

 ------------------------------------------------------------------------------------
  ==> Computing MBIS Charges <==

  Electron Count from Grid (Expected Number): 16.00000 (16.00000)
  Difference:  0.00000

  MBIS Charges: (a.u.)
   Center  Symbol  Z      Pop.       Charge
      1       O    8    6.916321    1.083679
      2       N    7    9.083679   -2.083679

  MBIS Dipoles: [e a0]
   Center  Symbol  Z        X           Y           Z
      1       O    8   -0.000000    0.000000   -0.120587
      2       N    7   -0.000000   -0.000000   -0.439426

  MBIS Quadrupoles: [e a0^2]
   Center  Symbol  Z      XX        XY        XZ        YY        YZ        ZZ
      1       O    8   -1.4874   -0.0000    0.0000   -1.4874    0.0000   -1.7954
      2       N    7   -10.0686    0.0000    0.0000   -10.0686   -0.0000   -8.4224

  MBIS Octupoles: [e a0^3]
   Center  Symbol  Z      XXX       XXY       XXZ       XYY       XYZ       XZZ       YYY       YYZ       YZZ       ZZZ
      1       O    8    0.0000    0.0000   -0.0324   -0.0000   -0.0000   -0.0000   -0.0000   -0.0324    0.0000    0.1515
      2       N    7    0.0000    0.0000   -2.5688   -0.0000   -0.0000    0.0000   -0.0000   -2.5688    0.0000   -0.8057

  MBIS Radial Moments:
   Center  Symbol  Z      [a0^2]      [a0^3]      [a0^4]
      1       O    8    4.770324    6.170000    9.697616
      2       N    7   28.559560   80.451631   257.732099

  MBIS Valence Widths: [a0]
   Center  Symbol  Z     Width
      1       O    8    0.268586
      2       N    7    0.577950

*** tstop() called on Mac.lan at Sun Aug 10 17:46:32 2025
Module time:
	user time   =       4.04 seconds =       0.07 minutes
	system time =       3.82 seconds =       0.06 minutes
	total time  =          1 seconds =       0.02 minutes
Total time:
	user time   =      19.18 seconds =       0.32 minutes
	system time =       6.47 seconds =       0.11 minutes
	total time  =          2 seconds =       0.03 minutes

    Psi4 stopped on: Sunday, 10 August 2025 05:46PM
    Psi4 wall time for execution: 0:00:02.48

*** Psi4 exiting successfully. Buy a developer a beer!
