                               Psi4 1.9.1 release

  ==> Input File <==

--------------------------------------------------------------------------
molecule {
-1 3
O           0.000000           0.000000           0.000000
N           0.000000           0.000000           1.099360
}

set {
basis              cc-pvtz
reference          uks
maxiter            500
DAMPING_PERCENTAGE 1
E_CONVERGENCE      1.0E-8
D_CONVERGENCE      1.0E-8
DIIS_MAX_VECS      400
MBIS_MAXITER       8000
guess              read
}

E, wfn = energy('b3lyp', restart_file='last_wfn', return_wfn=True)
properties('b3lyp','MBIS_CHARGES', wfn=wfn)
wfn.to_file('last_wfn')
--------------------------------------------------------------------------

    Molecular point group: c2v
  Charge       = -1
  Multiplicity = 3
  Basis Set: CC-PVTZ
    Blend: CC-PVTZ
  Basis Set: (CC-PVTZ AUX)
    Blend: CC-PVTZ-JKFIT
  @DF-UKS Final Energy:  -129.88605297076285
    Total Energy =                       -129.8860529707628473
 Dipole X            :          0.0000000            0.0000000            0.0000000
 Dipole Y            :          0.0000000            0.0000000            0.0000000
 Dipole Z            :         -0.4706355           -0.0041684           -0.4748039
 Magnitude           :                                                    0.4748039
    Molecular point group: c2v

    Geometry (in Angstrom), charge = -1, multiplicity = 3:

       Center              X                  Y                   Z               Mass
    ------------   -----------------  -----------------  -----------------  -----------------
         O            0.000000000000     0.000000000000    -0.513181721297    15.994914619570
         N            0.000000000000     0.000000000000     0.586178278703    14.003074004430

  Charge       = -1
  Multiplicity = 3
  Basis Set: CC-PVTZ
    Blend: CC-PVTZ
  Basis Set: (CC-PVTZ AUX)
    Blend: CC-PVTZ-JKFIT

    Orbital Energies [Eh]
    ---------------------

    Alpha Occupied:

       1A1   -18.829818     2A1   -13.991743     3A1    -0.882554
       4A1    -0.306251     1B2    -0.169334     1B1    -0.169334
       5A1    -0.109492     2B2     0.185868     2B1     0.185868

    Alpha Virtual:

       6A1     0.523190     3B1     0.719251     3B2     0.719251
       7A1     0.747229     8A1     0.845427     4B1     0.898749
       4B2     0.898749     9A1     1.017420    10A1     1.276421
       1A2     1.276422    11A1     1.494903     5B2     1.517320
       5B1     1.517320    12A1     1.888601     2A2     1.888601
      13A1     2.046343     6B2     2.369341     6B1     2.369341
      14A1     2.588360     7B1     3.205070     7B2     3.205070
      15A1     3.472382     8B2     3.957374     8B1     3.957374
       9B1     4.161886     9B2     4.161886     3A2     4.166462
      16A1     4.166462    17A1     4.179948    10B1     4.463867
      10B2     4.463867     4A2     4.759750    18A1     4.759753
      19A1     4.779750    11B2     5.140537    11B1     5.140537
      20A1     5.319615    12B2     5.441501    12B1     5.441501
       5A2     6.024025    21A1     6.024026    22A1     6.544145
       6A2     6.544150    23A1     6.850747    13B1     6.864517
      13B2     6.864517    24A1     7.421888    14B2     7.459626
      14B1     7.459626    25A1     7.620369    26A1    15.044065

    Beta Occupied:

       1A1   -18.809545     2A1   -13.966207     3A1    -0.844671
       4A1    -0.242447     1B2    -0.096156     1B1    -0.096156
       5A1    -0.062193

    Beta Virtual:

       2B1     0.348029     2B2     0.348029     6A1     0.533710
       3B1     0.761912     3B2     0.761912     7A1     0.771410
       8A1     0.867313     4B1     0.938398     4B2     0.938398
       9A1     1.055227    10A1     1.323846     1A2     1.323846
      11A1     1.514106     5B2     1.551206     5B1     1.551206
       2A2     1.935091    12A1     1.935091    13A1     2.073160
       6B2     2.401408     6B1     2.401408    14A1     2.613382
       7B1     3.276615     7B2     3.276615    15A1     3.499406
       8B2     4.008990     8B1     4.008990    16A1     4.205337
       3A2     4.205337    17A1     4.212108     9B1     4.237729
       9B2     4.237729    10B1     4.501950    10B2     4.501950
      18A1     4.812934     4A2     4.865832    19A1     4.865835
      11B2     5.181813    11B1     5.181813    20A1     5.349936
      12B2     5.490046    12B1     5.490046     5A2     6.062366
      21A1     6.062367    22A1     6.615248     6A2     6.615252
      23A1     6.871352    13B1     6.904241    13B2     6.904241
      24A1     7.458096    14B2     7.492262    14B1     7.492262
      25A1     7.645533    26A1    15.078156

    Final Occupation by Irrep:
             A1    A2    B1    B2
    DOCC [     5,    0,    1,    1 ]
    SOCC [     0,    0,    1,    1 ]
    NA   [     5,    0,    2,    2 ]
    NB   [     5,    0,    1,    1 ]

  @DF-UKS Final Energy:  -129.88605297111511

   => Energetics <=

    Nuclear Repulsion Energy =             26.9556139913404174
    One-Electron Energy =                -236.2918023661411553
    Two-Electron Energy =                  92.2419526238702332
    DFT Exchange-Correlation Energy =     -12.7918172201846065
    Empirical Dispersion Energy =           0.0000000000000000
    VV10 Nonlocal Energy =                  0.0000000000000000
    Total Energy =                       -129.8860529711151059

  UHF NO Occupations:
  HONO-2 :    1 B2 1.9990676
  HONO-1 :    2 B2 1.0000000
  HONO-0 :    2 B1 1.0000000
  LUNO+0 :    3 B2 0.0009324
  LUNO+1 :    3 B1 0.0009324
  LUNO+2 :    6 A1 0.0008872
  LUNO+3 :    7 A1 0.0001966

Computation Completed

Properties will be evaluated at   0.000000,   0.000000,   0.000000 [a0]

Properties computed using the B3LYP density matrix

 Multipole Moments:

 ------------------------------------------------------------------------------------
     Multipole            Electronic (a.u.)      Nuclear  (a.u.)        Total (a.u.)
 ------------------------------------------------------------------------------------

 L = 1.  Multiply by 2.5417464519 to convert [e a0] to [Debye]
 Dipole X            :          0.0000000            0.0000000            0.0000000
 Dipole Y            :          0.0000000            0.0000000            0.0000000
 Dipole Z            :         -0.4706355           -0.0041684           -0.4748039
 Magnitude           :                                                    0.4748039

 L = 2.  Multiply by 1.3450342976 to convert [e a0^2] to [Debye ang]
 Quadrupole XX       :         -9.4362350            0.0000000           -9.4362350
 Quadrupole XY       :          0.0000000            0.0000000            0.0000000
 Quadrupole XZ       :          0.0000000            0.0000000            0.0000000
 Quadrupole YY       :         -9.4362350            0.0000000           -9.4362350
 Quadrupole YZ       :          0.0000000            0.0000000            0.0000000
 Quadrupole ZZ       :        -28.2303822           16.1129254          -12.1174568
 Traceless XX        :          6.2647158           -5.3709751            0.8937406
 Traceless YY        :          6.2647158           -5.3709751            0.8937406
 Traceless ZZ        :        -12.5294315           10.7419503           -1.7874813

 ------------------------------------------------------------------------------------
  ==> Computing MBIS Charges <==

  Electron Count from Grid (Expected Number): 16.00000 (16.00000)
  Difference:  0.00000

  MBIS Charges: (a.u.)
   Center  Symbol  Z      Pop.       Charge
      1       O    8    8.341830   -0.341830
      2       N    7    7.658170   -0.658170

  MBIS Dipoles: [e a0]
   Center  Symbol  Z        X           Y           Z
      1       O    8    0.000000    0.000000    0.238881
      2       N    7    0.000000   -0.000000   -0.316116

  MBIS Quadrupoles: [e a0^2]
   Center  Symbol  Z      XX        XY        XZ        YY        YZ        ZZ
      1       O    8   -4.0736   -0.0000    0.0000   -4.0736    0.0000   -4.3287
      2       N    7   -5.3626   -0.0000    0.0000   -5.3626    0.0000   -5.4960

  MBIS Octupoles: [e a0^3]
   Center  Symbol  Z      XXX       XXY       XXZ       XYY       XYZ       XZZ       YYY       YYZ       YZZ       ZZZ
      1       O    8   -0.0000   -0.0000    0.3347    0.0000    0.0000    0.0000   -0.0000    0.3347    0.0000    0.3580
      2       N    7    0.0000   -0.0000   -0.5887    0.0000    0.0000    0.0000   -0.0000   -0.5887   -0.0000    0.0672

  MBIS Radial Moments:
   Center  Symbol  Z      [a0^2]      [a0^3]      [a0^4]
      1       O    8   12.475964   24.266703   56.634960
      2       N    7   16.221232   37.647894   103.421953

  MBIS Valence Widths: [a0]
   Center  Symbol  Z     Width
      1       O    8    0.394294
      2       N    7    0.477473

*** tstop() called on Mac.lan at Sun Aug 10 17:44:33 2025
Module time:
	user time   =       3.36 seconds =       0.06 minutes
	system time =       2.26 seconds =       0.04 minutes
	total time  =          1 seconds =       0.02 minutes
Total time:
	user time   =      17.09 seconds =       0.28 minutes
	system time =       4.67 seconds =       0.08 minutes
	total time  =          2 seconds =       0.03 minutes

    Psi4 stopped on: Sunday, 10 August 2025 05:44PM
    Psi4 wall time for execution: 0:00:02.11

*** Psi4 exiting successfully. Buy a developer a beer!
