                               Psi4 1.9.1 release

  ==> Input File <==

--------------------------------------------------------------------------
molecule {
-1 2
O           0.000000           0.000000           0.000000
O           0.000000           0.000000           1.235071
}

set {
basis              cc-pvtz
reference          uks
maxiter            500
DAMPING_PERCENTAGE 1
E_CONVERGENCE      1.0E-8
D_CONVERGENCE      1.0E-8
DIIS_MAX_VECS      400
MBIS_MAXITER       8000
guess              SAP
}

E, wfn = energy('b3lyp', return_wfn=True)
properties('b3lyp','MBIS_CHARGES', wfn=wfn)
wfn.to_file('last_wfn')
--------------------------------------------------------------------------

    Molecular point group: d2h
  Charge       = -1
  Multiplicity = 2
  Basis Set: CC-PVTZ
    Blend: CC-PVTZ
  Basis Set: (CC-PVTZ AUX)
    Blend: CC-PVTZ-JKFIT
  @DF-UKS Final Energy:  -150.36475122990504
    Total Energy =                       -150.3647512299050106
 Dipole X            :          0.0000000            0.0000000            0.0000000
 Dipole Y            :          0.0000000            0.0000000            0.0000000
 Dipole Z            :          0.0000000            0.0000000            0.0000000
 Magnitude           :                                                    0.0000000
    Molecular point group: d2h

    Geometry (in Angstrom), charge = -1, multiplicity = 2:

       Center              X                  Y                   Z               Mass
    ------------   -----------------  -----------------  -----------------  -----------------
         O            0.000000000000     0.000000000000    -0.617535500000    15.994914619570
         O            0.000000000000     0.000000000000     0.617535500000    15.994914619570

  Charge       = -1
  Multiplicity = 2
  Basis Set: CC-PVTZ
    Blend: CC-PVTZ
  Basis Set: (CC-PVTZ AUX)
    Blend: CC-PVTZ-JKFIT

    Orbital Energies [Eh]
    ---------------------

    Alpha Occupied:

       1Ag   -18.817781     1B1u  -18.817614     2Ag    -0.843480
       2B1u   -0.413888     1B2u   -0.142887     3Ag    -0.128652
       1B3u   -0.103927     1B3g    0.098573     1B2g    0.140933

    Alpha Virtual:

       3B1u    0.528273     2B2u    0.833757     4B1u    0.837974
       2B3u    0.856003     4Ag     0.871345     2B3g    0.931813
       2B2g    0.952716     5Ag     1.032212     5B1u    1.553995
       1B1g    1.609844     6Ag     1.610037     3B2u    1.660087
       3B3u    1.686097     1Au     1.988368     6B1u    1.988550
       7Ag     2.446070     7B1u    2.503222     3B3g    2.512092
       3B2g    2.538222     4B2u    3.797644     4B3u    3.832863
       8Ag     3.968338     4B3g    4.071055     4B2g    4.108801
       9Ag     5.003074     2B1g    5.003588     5B2u    5.030039
       5B3u    5.058796     8B1u    5.095515    10Ag     5.250226
       6B2u    5.335950     6B3u    5.336001     5B3g    5.547971
       5B2g    5.547986     2Au     6.039152     9B1u    6.039351
      10B1u    6.280233     3B1g    6.452905    11Ag     6.452922
       6B3g    6.645398     3Au     6.658745    11B1u    6.659461
       6B2g    6.679007     7B2u    6.756215     7B3u    6.790756
      12B1u    6.977286    12Ag     7.282050     7B3g    7.503938
       7B2g    7.533703    13Ag     7.980991    13B1u   11.970121

    Beta Occupied:

       1Ag   -18.803572     1B1u  -18.803346     2Ag    -0.815466
       2B1u   -0.371288     3Ag    -0.110859     1B3u   -0.092316
       1B2u   -0.060003     1B2g    0.155803

    Beta Virtual:

       1B3g    0.265501     3B1u    0.543909     4B1u    0.850448
       2B3u    0.861143     2B2u    0.867820     4Ag     0.877318
       2B2g    0.958810     2B3g    0.973221     5Ag     1.043043
       5B1u    1.571582     1B1g    1.630481     6Ag     1.631674
       3B2u    1.687560     3B3u    1.687898     1Au     2.017911
       6B1u    2.019454     7Ag     2.461347     7B1u    2.512694
       3B2g    2.542067     3B3g    2.544255     4B3u    3.843448
       4B2u    3.859493     8Ag     3.978974     4B2g    4.120384
       4B3g    4.133994     2B1g    5.023516     9Ag     5.024687
       5B2u    5.059099     5B3u    5.062920     8B1u    5.113039
      10Ag     5.265735     6B3u    5.370009     6B2u    5.370291
       5B2g    5.583964     5B3g    5.584254     2Au     6.065739
       9B1u    6.067254    10B1u    6.301832     3B1g    6.503590
      11Ag     6.507116     6B2g    6.686061     6B3g    6.696135
       3Au     6.706587    11B1u    6.710005     7B3u    6.797248
       7B2u    6.805915    12B1u    6.991721    12Ag     7.299450
       7B3g    7.536017     7B2g    7.537202    13Ag     8.004002
      13B1u   11.990582

    Final Occupation by Irrep:
             Ag   B1g   B2g   B3g    Au   B1u   B2u   B3u
    DOCC [     3,    0,    1,    0,    0,    2,    1,    1 ]
    SOCC [     0,    0,    0,    1,    0,    0,    0,    0 ]
    NA   [     3,    0,    1,    1,    0,    2,    1,    1 ]
    NB   [     3,    0,    1,    0,    0,    2,    1,    1 ]

  @DF-UKS Final Energy:  -150.36475122990504

   => Energetics <=

    Nuclear Repulsion Energy =             27.4213721177810861
    One-Electron Energy =                -267.5250502795275906
    Two-Electron Energy =                 103.8282481309564247
    DFT Exchange-Correlation Energy =     -14.0893211991149592
    Empirical Dispersion Energy =           0.0000000000000000
    VV10 Nonlocal Energy =                  0.0000000000000000
    Total Energy =                       -150.3647512299050106

  UHF NO Occupations:
  HONO-2 :    2B1u 1.9997108
  HONO-1 :    1B2u 1.9987276
  HONO-0 :    1B3g 1.0000000
  LUNO+0 :    2B2u 0.0012724
  LUNO+1 :    3B1u 0.0002892
  LUNO+2 :    4 Ag 0.0001437
  LUNO+3 :    2B2g 0.0000528

Computation Completed

Properties will be evaluated at   0.000000,   0.000000,   0.000000 [a0]

Properties computed using the B3LYP density matrix

 Multipole Moments:

 ------------------------------------------------------------------------------------
     Multipole            Electronic (a.u.)      Nuclear  (a.u.)        Total (a.u.)
 ------------------------------------------------------------------------------------

 L = 1.  Multiply by 2.5417464519 to convert [e a0] to [Debye]
 Dipole X            :          0.0000000            0.0000000            0.0000000
 Dipole Y            :          0.0000000            0.0000000            0.0000000
 Dipole Z            :          0.0000000            0.0000000            0.0000000
 Magnitude           :                                                    0.0000000

 L = 2.  Multiply by 1.3450342976 to convert [e a0^2] to [Debye ang]
 Quadrupole XX       :         -9.5267209            0.0000000           -9.5267209
 Quadrupole XY       :          0.0000000            0.0000000            0.0000000
 Quadrupole XZ       :          0.0000000            0.0000000            0.0000000
 Quadrupole YY       :         -8.7028784            0.0000000           -8.7028784
 Quadrupole YZ       :          0.0000000            0.0000000            0.0000000
 Quadrupole ZZ       :        -33.0879209           21.7892145          -11.2987064
 Traceless XX        :          7.5791192           -7.2630715            0.3160477
 Traceless YY        :          8.4029617           -7.2630715            1.1398902
 Traceless ZZ        :        -15.9820809           14.5261430           -1.4559379

 ------------------------------------------------------------------------------------
  ==> Computing MBIS Charges <==

  Electron Count from Grid (Expected Number): 17.00000 (17.00000)
  Difference:  0.00000

  MBIS Charges: (a.u.)
   Center  Symbol  Z      Pop.       Charge
      1       O    8    8.500000   -0.500000
      2       O    8    8.500000   -0.500000

  MBIS Dipoles: [e a0]
   Center  Symbol  Z        X           Y           Z
      1       O    8   -0.000000   -0.000000    0.247950
      2       O    8    0.000000   -0.000000   -0.247950

  MBIS Quadrupoles: [e a0^2]
   Center  Symbol  Z      XX        XY        XZ        YY        YZ        ZZ
      1       O    8   -4.7634   -0.0000    0.0000   -4.3514   -0.0000   -4.3897
      2       O    8   -4.7634   -0.0000   -0.0000   -4.3514    0.0000   -4.3897

  MBIS Octupoles: [e a0^3]
   Center  Symbol  Z      XXX       XXY       XXZ       XYY       XYZ       XZZ       YYY       YYZ       YZZ       ZZZ
      1       O    8   -0.0000   -0.0000    0.4090    0.0000   -0.0000   -0.0000   -0.0000    0.2526   -0.0000   -0.0142
      2       O    8   -0.0000   -0.0000   -0.4090    0.0000    0.0000   -0.0000   -0.0000   -0.2526   -0.0000    0.0142

  MBIS Radial Moments:
   Center  Symbol  Z      [a0^2]      [a0^3]      [a0^4]
      1       O    8   13.504539   27.023561   64.596753
      2       O    8   13.504539   27.023561   64.596753

  MBIS Valence Widths: [a0]
   Center  Symbol  Z     Width
      1       O    8    0.406022
      2       O    8    0.406022

*** tstop() called on Mac.lan at Sun Aug 10 17:28:09 2025
Module time:
	user time   =      15.54 seconds =       0.26 minutes
	system time =       2.01 seconds =       0.03 minutes
	total time  =          1 seconds =       0.02 minutes
Total time:
	user time   =      30.89 seconds =       0.51 minutes
	system time =       3.91 seconds =       0.07 minutes
	total time  =          3 seconds =       0.05 minutes

    Psi4 stopped on: Sunday, 10 August 2025 05:28PM
    Psi4 wall time for execution: 0:00:03.32

*** Psi4 exiting successfully. Buy a developer a beer!
