                               Psi4 1.9.1 release

  ==> Input File <==

--------------------------------------------------------------------------
molecule {
-1 2
H           0.000000           0.000000           0.000000
H           0.000000           0.000000           0.625783
}

set {
basis              cc-pvtz
reference          uks
maxiter            500
DAMPING_PERCENTAGE 1
E_CONVERGENCE      1.0E-8
D_CONVERGENCE      1.0E-8
DIIS_MAX_VECS      400
MBIS_MAXITER       8000
guess              read
}

E, wfn = energy('b3lyp', restart_file='last_wfn', return_wfn=True)
properties('b3lyp','MBIS_CHARGES', wfn=wfn)
wfn.to_file('last_wfn')
--------------------------------------------------------------------------

    Molecular point group: d2h
  Charge       = -1
  Multiplicity = 2
  Basis Set: CC-PVTZ
    Blend: CC-PVTZ
  Basis Set: (CC-PVTZ AUX)
    Blend: CC-PVTZ-JKFIT
  @DF-UKS Final Energy:    -1.01852583098755
    Total Energy =                         -1.0185258309875498
 Dipole X            :          0.0000000            0.0000000            0.0000000
 Dipole Y            :          0.0000000            0.0000000            0.0000000
 Dipole Z            :          0.0000000            0.0000000            0.0000000
 Magnitude           :                                                    0.0000000
    Molecular point group: d2h

    Geometry (in Angstrom), charge = -1, multiplicity = 2:

       Center              X                  Y                   Z               Mass
    ------------   -----------------  -----------------  -----------------  -----------------
         H            0.000000000000     0.000000000000    -0.312891500000     1.007825032230
         H            0.000000000000     0.000000000000     0.312891500000     1.007825032230

  Charge       = -1
  Multiplicity = 2
  Basis Set: CC-PVTZ
    Blend: CC-PVTZ
  Basis Set: (CC-PVTZ AUX)
    Blend: CC-PVTZ-JKFIT

    Orbital Energies [Eh]
    ---------------------

    Alpha Occupied:

       1Ag    -0.170105     1B1u    0.229827

    Alpha Virtual:

       2Ag     0.404454     2B1u    0.760801     1B3u    0.809478
       1B2u    0.809478     3Ag     1.206392     1B3g    1.225668
       1B2g    1.225668     3B1u    1.661609     4Ag     2.308398
       4B1u    2.427667     1B1g    3.198935     5Ag     3.198935
       2B2u    3.427747     2B3u    3.427747     6Ag     3.686213
       2B3g    3.781664     2B2g    3.781664     1Au     4.210863
       5B1u    4.210863     3B2u    4.226853     3B3u    4.226853
       6B1u    4.998218     3B3g    6.181540     3B2g    6.181540
       7Ag     6.241430     7B1u    7.663094

    Beta Occupied:

       1Ag    -0.158722

    Beta Virtual:

       1B1u    0.325479     2Ag     0.425331     2B1u    0.789894
       1B3u    0.811908     1B2u    0.811908     3Ag     1.244342
       1B3g    1.246567     1B2g    1.246567     3B1u    1.680966
       4Ag     2.311901     4B1u    2.453616     5Ag     3.199855
       1B1g    3.199855     2B2u    3.427255     2B3u    3.427255
       6Ag     3.713735     2B3g    3.802306     2B2g    3.802306
       5B1u    4.219562     1Au     4.219562     3B2u    4.242876
       3B3u    4.242876     6B1u    5.018268     3B3g    6.191991
       3B2g    6.191991     7Ag     6.252701     7B1u    7.675146

    Final Occupation by Irrep:
             Ag   B1g   B2g   B3g    Au   B1u   B2u   B3u
    DOCC [     1,    0,    0,    0,    0,    0,    0,    0 ]
    SOCC [     0,    0,    0,    0,    0,    1,    0,    0 ]
    NA   [     1,    0,    0,    0,    0,    1,    0,    0 ]
    NB   [     1,    0,    0,    0,    0,    0,    0,    0 ]

  @DF-UKS Final Energy:    -1.01852583111075

   => Energetics <=

    Nuclear Repulsion Energy =              0.8456241391504724
    One-Electron Energy =                  -3.0841851767287043
    Two-Electron Energy =                   1.9737917075465301
    DFT Exchange-Correlation Energy =      -0.7537565010790430
    Empirical Dispersion Energy =           0.0000000000000000
    VV10 Nonlocal Energy =                  0.0000000000000000
    Total Energy =                         -1.0185258311107448

  UHF NO Occupations:
  HONO-1 :    1 Ag 1.9997284
  HONO-0 :    1B1u 1.0000000
  LUNO+0 :    2 Ag 0.0002716
  LUNO+1 :    2B1u 0.0000000
  LUNO+2 :    3B1u 0.0000000
  LUNO+3 :    3 Ag 0.0000000

Computation Completed

Properties will be evaluated at   0.000000,   0.000000,   0.000000 [a0]

Properties computed using the B3LYP density matrix

 Multipole Moments:

 ------------------------------------------------------------------------------------
     Multipole            Electronic (a.u.)      Nuclear  (a.u.)        Total (a.u.)
 ------------------------------------------------------------------------------------

 L = 1.  Multiply by 2.5417464519 to convert [e a0] to [Debye]
 Dipole X            :          0.0000000            0.0000000            0.0000000
 Dipole Y            :          0.0000000            0.0000000            0.0000000
 Dipole Z            :          0.0000000            0.0000000            0.0000000
 Magnitude           :                                                    0.0000000

 L = 2.  Multiply by 1.3450342976 to convert [e a0^2] to [Debye ang]
 Quadrupole XX       :         -4.1178406            0.0000000           -4.1178406
 Quadrupole XY       :          0.0000000            0.0000000            0.0000000
 Quadrupole XZ       :          0.0000000            0.0000000            0.0000000
 Quadrupole YY       :         -4.1178406            0.0000000           -4.1178406
 Quadrupole YZ       :          0.0000000            0.0000000            0.0000000
 Quadrupole ZZ       :         -9.9564371            0.6992223           -9.2572148
 Traceless XX        :          1.9461988           -0.2330741            1.7131247
 Traceless YY        :          1.9461988           -0.2330741            1.7131247
 Traceless ZZ        :         -3.8923977            0.4661482           -3.4262495

 ------------------------------------------------------------------------------------
  ==> Computing MBIS Charges <==

  Electron Count from Grid (Expected Number):  3.00000 ( 3.00000)
  Difference: -0.00000

  MBIS Charges: (a.u.)
   Center  Symbol  Z      Pop.       Charge
      1       H    1    1.500000   -0.500000
      2       H    1    1.500000   -0.500000

  MBIS Dipoles: [e a0]
   Center  Symbol  Z        X           Y           Z
      1       H    1   -0.000000   -0.000000    0.319927
      2       H    1    0.000000    0.000000   -0.319927

  MBIS Quadrupoles: [e a0^2]
   Center  Symbol  Z      XX        XY        XZ        YY        YZ        ZZ
      1       H    1   -2.0589    0.0000   -0.0000   -2.0589   -0.0000   -4.0755
      2       H    1   -2.0589   -0.0000   -0.0000   -2.0589   -0.0000   -4.0755

  MBIS Octupoles: [e a0^3]
   Center  Symbol  Z      XXX       XXY       XXZ       XYY       XYZ       XZZ       YYY       YYZ       YZZ       ZZZ
      1       H    1   -0.0000   -0.0000    0.9085    0.0000    0.0000   -0.0000    0.0000    0.9085    0.0000    2.1109
      2       H    1    0.0000    0.0000   -0.9085    0.0000   -0.0000    0.0000   -0.0000   -0.9085    0.0000   -2.1109

  MBIS Radial Moments:
   Center  Symbol  Z      [a0^2]      [a0^3]      [a0^4]
      1       H    1    8.193310   28.482402   113.739151
      2       H    1    8.193310   28.482402   113.739151

  MBIS Valence Widths: [a0]
   Center  Symbol  Z     Width
      1       H    1    0.651945
      2       H    1    0.651945

*** tstop() called on Mac.lan at Sun Aug 10 17:25:58 2025
Module time:
	user time   =       0.52 seconds =       0.01 minutes
	system time =       1.36 seconds =       0.02 minutes
	total time  =          0 seconds =       0.00 minutes
Total time:
	user time   =       1.70 seconds =       0.03 minutes
	system time =       3.39 seconds =       0.06 minutes
	total time  =          1 seconds =       0.02 minutes

    Psi4 stopped on: Sunday, 10 August 2025 05:25PM
    Psi4 wall time for execution: 0:00:00.83

*** Psi4 exiting successfully. Buy a developer a beer!
