                               Psi4 1.9.1 release

  ==> Input File <==

--------------------------------------------------------------------------
molecule {
-1 2
O           0.000000           0.000000           0.000000
O           0.000000           0.000000           0.536807
}

set {
basis              cc-pvtz
reference          uks
maxiter            500
DAMPING_PERCENTAGE 1
E_CONVERGENCE      1.0E-8
D_CONVERGENCE      1.0E-8
DIIS_MAX_VECS      400
MBIS_MAXITER       8000
guess              read
}

E, wfn = energy('b3lyp', restart_file='last_wfn', return_wfn=True)
properties('b3lyp','MBIS_CHARGES', wfn=wfn)
wfn.to_file('last_wfn')
--------------------------------------------------------------------------

    Molecular point group: d2h
  Charge       = -1
  Multiplicity = 2
  Basis Set: CC-PVTZ
    Blend: CC-PVTZ
  Basis Set: (CC-PVTZ AUX)
    Blend: CC-PVTZ-JKFIT
  @DF-UKS Final Energy:  -144.96932433536384
    Total Energy =                       -144.9693243353638366
 Dipole X            :          0.0000000            0.0000000            0.0000000
 Dipole Y            :          0.0000000            0.0000000            0.0000000
 Dipole Z            :          0.0000000            0.0000000            0.0000000
 Magnitude           :                                                    0.0000000
    Molecular point group: d2h

    Geometry (in Angstrom), charge = -1, multiplicity = 2:

       Center              X                  Y                   Z               Mass
    ------------   -----------------  -----------------  -----------------  -----------------
         O            0.000000000000     0.000000000000    -0.268403500000    15.994914619570
         O            0.000000000000     0.000000000000     0.268403500000    15.994914619570

  Charge       = -1
  Multiplicity = 2
  Basis Set: CC-PVTZ
    Blend: CC-PVTZ
  Basis Set: (CC-PVTZ AUX)
    Blend: CC-PVTZ-JKFIT

    Orbital Energies [Eh]
    ---------------------

    Alpha Occupied:

       1Ag   -19.334727     1B1u  -19.059146     2Ag    -1.525526
       1B2u   -0.926551     1B3u   -0.900318     3Ag    -0.437137
       2B1u   -0.306294     1B3g    0.450033     1B2g    0.477446

    Alpha Virtual:

       3B1u    0.584016     2B2u    0.588851     2B3u    0.610772
       4Ag     0.711270     5Ag     0.972583     2B3g    1.065339
       2B2g    1.089066     1B1g    1.397316     6Ag     1.397808
       4B1u    1.558783     3B2u    2.137500     7Ag     2.162689
       3B3u    2.165614     5B1u    2.170804     1Au     2.202991
       6B1u    2.207296     3B3g    2.588232     3B2g    2.610773
       4B2u    3.163257     4B3u    3.187358     8Ag     4.228060
       4B3g    4.717123     5B3u    4.729318     5B2u    4.729319
       4B2g    4.744328     7B1u    4.766446     2B1g    5.036788
       9Ag     5.037048     8B1u    5.414227     6B2u    5.775364
       6B3u    5.798862     2Au     5.814156     9B1u    5.814301
      10Ag     6.045140     5B3g    6.213964     5B2g    6.213971
       3B1g    6.457759    11Ag     6.458332    12Ag     6.558607
       6B3g    6.573257     6B2g    6.597898    10B1u    7.545837
       7B2u    8.623148     7B3u    8.645025     3Au     9.223853
      11B1u    9.223985    13Ag    10.919307     7B3g   11.519902
       7B2g   11.542669    12B1u   13.229886    13B1u   39.481804

    Beta Occupied:

       1Ag   -19.330212     1B1u  -19.054361     2Ag    -1.519401
       1B3u   -0.896116     1B2u   -0.894190     3Ag    -0.418367
       2B1u   -0.277196     1B2g    0.487982

    Beta Virtual:

       1B3g    0.575335     3B1u    0.598662     2B3u    0.617054
       2B2u    0.620577     4Ag     0.724831     5Ag     0.984493
       2B2g    1.097166     2B3g    1.121655     1B1g    1.411524
       6Ag     1.412237     4B1u    1.583412     7Ag     2.168400
       3B3u    2.171043     3B2u    2.178374     5B1u    2.188976
       1Au     2.236698     6B1u    2.238603     3B2g    2.616245
       3B3g    2.626572     4B2u    3.182786     4B3u    3.190454
       8Ag     4.239239     5B3u    4.741755     5B2u    4.741780
       4B2g    4.750843     4B3g    4.755272     7B1u    4.780400
       2B1g    5.047754     9Ag     5.048282     8B1u    5.428935
       6B3u    5.802101     6B2u    5.806692     2Au     5.842021
       9B1u    5.843346    10Ag     6.056378     5B2g    6.239591
       5B3g    6.239632     3B1g    6.478771    11Ag     6.479601
      12Ag     6.567495     6B2g    6.600711     6B3g    6.601560
      10B1u    7.557656     7B2u    8.645550     7B3u    8.647171
       3Au     9.244084    11B1u    9.244875    13Ag    10.932583
       7B2g   11.546904     7B3g   11.550029    12B1u   13.234430
      13B1u   39.489075

    Final Occupation by Irrep:
             Ag   B1g   B2g   B3g    Au   B1u   B2u   B3u
    DOCC [     3,    0,    1,    0,    0,    2,    1,    1 ]
    SOCC [     0,    0,    0,    1,    0,    0,    0,    0 ]
    NA   [     3,    0,    1,    1,    0,    2,    1,    1 ]
    NB   [     3,    0,    1,    0,    0,    2,    1,    1 ]

  @DF-UKS Final Energy:  -144.96932433481723

   => Energetics <=

    Nuclear Repulsion Energy =             63.0903499449150047
    One-Electron Energy =                -321.7792141315171079
    Two-Electron Energy =                 128.9243251462506521
    DFT Exchange-Correlation Energy =     -15.2047852944657489
    Empirical Dispersion Energy =           0.0000000000000000
    VV10 Nonlocal Energy =                  0.0000000000000000
    Total Energy =                       -144.9693243348172302

  UHF NO Occupations:
  HONO-2 :    3 Ag 1.9999526
  HONO-1 :    2B1u 1.9999189
  HONO-0 :    1B3g 1.0000000
  LUNO+0 :    3B1u 0.0000811
  LUNO+1 :    4 Ag 0.0000474
  LUNO+2 :    2B2u 0.0000384
  LUNO+3 :    2B2g 0.0000025

Computation Completed

Properties will be evaluated at   0.000000,   0.000000,   0.000000 [a0]

Properties computed using the B3LYP density matrix

 Multipole Moments:

 ------------------------------------------------------------------------------------
     Multipole            Electronic (a.u.)      Nuclear  (a.u.)        Total (a.u.)
 ------------------------------------------------------------------------------------

 L = 1.  Multiply by 2.5417464519 to convert [e a0] to [Debye]
 Dipole X            :          0.0000000            0.0000000            0.0000000
 Dipole Y            :          0.0000000            0.0000000            0.0000000
 Dipole Z            :          0.0000000            0.0000000            0.0000000
 Magnitude           :                                                    0.0000000

 L = 2.  Multiply by 1.3450342976 to convert [e a0^2] to [Debye ang]
 Quadrupole XX       :        -10.1630869            0.0000000          -10.1630869
 Quadrupole XY       :          0.0000000            0.0000000            0.0000000
 Quadrupole XZ       :          0.0000000            0.0000000            0.0000000
 Quadrupole YY       :         -8.4430435            0.0000000           -8.4430435
 Quadrupole YZ       :          0.0000000            0.0000000            0.0000000
 Quadrupole ZZ       :        -16.8347336            4.1161772          -12.7185563
 Traceless XX        :          1.6505344           -1.3720591            0.2784754
 Traceless YY        :          3.3705778           -1.3720591            1.9985187
 Traceless ZZ        :         -5.0211122            2.7441182           -2.2769941

 ------------------------------------------------------------------------------------
  ==> Computing MBIS Charges <==

  Electron Count from Grid (Expected Number): 17.00000 (17.00000)
  Difference:  0.00000

  MBIS Charges: (a.u.)
   Center  Symbol  Z      Pop.       Charge
      1       O    8    8.500001   -0.500001
      2       O    8    8.500001   -0.500001

  MBIS Dipoles: [e a0]
   Center  Symbol  Z        X           Y           Z
      1       O    8   -0.000000   -0.000000    0.404480
      2       O    8   -0.000000   -0.000000   -0.404480

  MBIS Quadrupoles: [e a0^2]
   Center  Symbol  Z      XX        XY        XZ        YY        YZ        ZZ
      1       O    8   -5.0815    0.0000    0.0000   -4.2215    0.0000   -5.8203
      2       O    8   -5.0815    0.0000   -0.0000   -4.2215   -0.0000   -5.8203

  MBIS Octupoles: [e a0^3]
   Center  Symbol  Z      XXX       XXY       XXZ       XYY       XYZ       XZZ       YYY       YYZ       YZZ       ZZZ
      1       O    8   -0.0000   -0.0000    1.4772   -0.0000   -0.0000   -0.0000   -0.0000    1.0354   -0.0000    0.7396
      2       O    8   -0.0000   -0.0000   -1.4772   -0.0000    0.0000   -0.0000   -0.0000   -1.0354   -0.0000   -0.7396

  MBIS Radial Moments:
   Center  Symbol  Z      [a0^2]      [a0^3]      [a0^4]
      1       O    8   15.123401   35.051473   97.844882
      2       O    8   15.123401   35.051473   97.844882

  MBIS Valence Widths: [a0]
   Center  Symbol  Z     Width
      1       O    8    0.422121
      2       O    8    0.422121

*** tstop() called on Mac.lan at Sun Aug 10 17:28:00 2025
Module time:
	user time   =       4.41 seconds =       0.07 minutes
	system time =       2.68 seconds =       0.04 minutes
	total time  =          1 seconds =       0.02 minutes
Total time:
	user time   =      19.01 seconds =       0.32 minutes
	system time =       5.40 seconds =       0.09 minutes
	total time  =          2 seconds =       0.03 minutes

    Psi4 stopped on: Sunday, 10 August 2025 05:28PM
    Psi4 wall time for execution: 0:00:02.37

*** Psi4 exiting successfully. Buy a developer a beer!
