                               Psi4 1.9.1 release

  ==> Input File <==

--------------------------------------------------------------------------
molecule {
-1 1
O           0.000000           0.000000           0.000000
H           0.000000           0.000000           0.886837
}

set {
basis              cc-pvtz
reference          uks
maxiter            500
DAMPING_PERCENTAGE 1
E_CONVERGENCE      1.0E-8
D_CONVERGENCE      1.0E-8
DIIS_MAX_VECS      400
MBIS_MAXITER       8000
guess              SAP
}

E, wfn = energy('b3lyp', return_wfn=True)
properties('b3lyp','MBIS_CHARGES', wfn=wfn)
wfn.to_file('last_wfn')
--------------------------------------------------------------------------

    Molecular point group: c2v
  Charge       = -1
  Multiplicity = 1
  Basis Set: CC-PVTZ
    Blend: CC-PVTZ
  Basis Set: (CC-PVTZ AUX)
    Blend: CC-PVTZ-JKFIT
  @DF-UKS Final Energy:   -75.78311933399662
    Total Energy =                        -75.7831193339966234
 Dipole X            :          0.0000000            0.0000000            0.0000000
 Dipole Y            :          0.0000000            0.0000000            0.0000000
 Dipole Z            :         -0.2869801            0.7818504            0.4948704
 Magnitude           :                                                    0.4948704
    Molecular point group: c2v

    Geometry (in Angstrom), charge = -1, multiplicity = 1:

       Center              X                  Y                   Z               Mass
    ------------   -----------------  -----------------  -----------------  -----------------
         O            0.000000000000     0.000000000000    -0.052566618463    15.994914619570
         H            0.000000000000     0.000000000000     0.834270381537     1.007825032230

  Charge       = -1
  Multiplicity = 1
  Basis Set: CC-PVTZ
    Blend: CC-PVTZ
  Basis Set: (CC-PVTZ AUX)
    Blend: CC-PVTZ-JKFIT

    Orbital Energies [Eh]
    ---------------------

    Alpha Occupied:

       1A1   -18.654973     2A1    -0.538098     3A1    -0.025563
       1B1     0.120398     1B2     0.120398

    Alpha Virtual:

       4A1     0.322087     5A1     0.774470     6A1     0.852045
       2B1     0.947289     2B2     0.947289     3B2     1.071155
       3B1     1.071155     7A1     1.229475     8A1     1.745671
       1A2     1.888303     9A1     1.888303     4B1     2.219928
       4B2     2.219928    10A1     2.235723    11A1     2.917832
       2A2     3.632229    12A1     3.632229     5B1     3.825303
       5B2     3.825303     6B1     4.050917     6B2     4.050917
      13A1     4.171401     7B1     4.575747     7B2     4.575747
      14A1     4.940612    15A1     5.228361     8B1     5.590248
       8B2     5.590248     3A2     5.945909    16A1     5.945909
       4A2     6.681431    17A1     6.681431     9B1     6.860574
       9B2     6.860574    18A1     7.062360    10B1     7.331621
      10B2     7.331621    19A1     7.616244    20A1    11.435781

    Beta Occupied:

       1A1   -18.654973     2A1    -0.538098     3A1    -0.025563
       1B1     0.120398     1B2     0.120398

    Beta Virtual:

       4A1     0.322087     5A1     0.774470     6A1     0.852045
       2B1     0.947289     2B2     0.947289     3B2     1.071155
       3B1     1.071155     7A1     1.229475     8A1     1.745671
       1A2     1.888303     9A1     1.888303     4B1     2.219928
       4B2     2.219928    10A1     2.235723    11A1     2.917832
       2A2     3.632229    12A1     3.632229     5B1     3.825303
       5B2     3.825303     6B1     4.050917     6B2     4.050917
      13A1     4.171401     7B1     4.575747     7B2     4.575747
      14A1     4.940612    15A1     5.228361     8B1     5.590248
       8B2     5.590248     3A2     5.945909    16A1     5.945909
       4A2     6.681431    17A1     6.681431     9B1     6.860574
       9B2     6.860574    18A1     7.062360    10B1     7.331621
      10B2     7.331621    19A1     7.616244    20A1    11.435781

    Final Occupation by Irrep:
             A1    A2    B1    B2
    DOCC [     3,    0,    1,    1 ]
    SOCC [     0,    0,    0,    0 ]
    NA   [     3,    0,    1,    1 ]
    NB   [     3,    0,    1,    1 ]

  @DF-UKS Final Energy:   -75.78311933399662

   => Energetics <=

    Nuclear Repulsion Energy =              4.7736141876804874
    One-Electron Energy =                -117.7709047678421825
    Two-Electron Energy =                  44.7154907166029432
    DFT Exchange-Correlation Energy =      -7.5013194704378812
    Empirical Dispersion Energy =           0.0000000000000000
    VV10 Nonlocal Energy =                  0.0000000000000000
    Total Energy =                        -75.7831193339966234

  UHF NO Occupations:
  HONO-2 :    1 B2 2.0000000
  HONO-1 :    3 A1 2.0000000
  HONO-0 :    1 B1 2.0000000
  LUNO+0 :    4 A1 0.0000000
  LUNO+1 :    5 A1 0.0000000
  LUNO+2 :    6 A1 0.0000000
  LUNO+3 :    7 A1 0.0000000

Computation Completed

Properties will be evaluated at   0.000000,   0.000000,   0.000000 [a0]

Properties computed using the B3LYP density matrix

 Multipole Moments:

 ------------------------------------------------------------------------------------
     Multipole            Electronic (a.u.)      Nuclear  (a.u.)        Total (a.u.)
 ------------------------------------------------------------------------------------

 L = 1.  Multiply by 2.5417464519 to convert [e a0] to [Debye]
 Dipole X            :          0.0000000            0.0000000            0.0000000
 Dipole Y            :          0.0000000            0.0000000            0.0000000
 Dipole Z            :         -0.2869801            0.7818504            0.4948704
 Magnitude           :                                                    0.4948704

 L = 2.  Multiply by 1.3450342976 to convert [e a0^2] to [Debye ang]
 Quadrupole XX       :         -6.2310358            0.0000000           -6.2310358
 Quadrupole XY       :          0.0000000            0.0000000            0.0000000
 Quadrupole XZ       :          0.0000000            0.0000000            0.0000000
 Quadrupole YY       :         -6.2310358            0.0000000           -6.2310358
 Quadrupole YZ       :          0.0000000            0.0000000            0.0000000
 Quadrupole ZZ       :         -7.6354752            2.5644283           -5.0710469
 Traceless XX        :          0.4681465           -0.8548094           -0.3866630
 Traceless YY        :          0.4681465           -0.8548094           -0.3866630
 Traceless ZZ        :         -0.9362930            1.7096189            0.7733259

 ------------------------------------------------------------------------------------
  ==> Computing MBIS Charges <==

  Electron Count from Grid (Expected Number): 10.00000 (10.00000)
  Difference: -0.00000

  MBIS Charges: (a.u.)
   Center  Symbol  Z      Pop.       Charge
      1       O    8    9.303606   -1.303606
      2       H    1    0.696394    0.303606

  MBIS Dipoles: [e a0]
   Center  Symbol  Z        X           Y           Z
      1       O    8   -0.000000   -0.000000   -0.125105
      2       H    1    0.000000   -0.000000    0.011832

  MBIS Quadrupoles: [e a0^2]
   Center  Symbol  Z      XX        XY        XZ        YY        YZ        ZZ
      1       O    8   -5.8201   -0.0000    0.0000   -5.8201    0.0000   -5.4634
      2       H    1   -0.4109   -0.0000    0.0000   -0.4109    0.0000   -0.4115

  MBIS Octupoles: [e a0^3]
   Center  Symbol  Z      XXX       XXY       XXZ       XYY       XYZ       XZZ       YYY       YYZ       YZZ       ZZZ
      1       O    8    0.0000   -0.0000   -0.1419    0.0000   -0.0000    0.0000   -0.0000   -0.1419    0.0000   -0.8483
      2       H    1    0.0000   -0.0000    0.0016    0.0000   -0.0000    0.0000    0.0000    0.0016   -0.0000   -0.0090

  MBIS Radial Moments:
   Center  Symbol  Z      [a0^2]      [a0^3]      [a0^4]
      1       O    8   17.103687   36.235298   90.752298
      2       H    1    1.233339    2.373973    5.428910

  MBIS Valence Widths: [a0]
   Center  Symbol  Z     Width
      1       O    8    0.433756
      2       H    1    0.382729

*** tstop() called on Mac.lan at Sun Aug 10 17:37:49 2025
Module time:
	user time   =      11.16 seconds =       0.19 minutes
	system time =       2.68 seconds =       0.04 minutes
	total time  =          1 seconds =       0.02 minutes
Total time:
	user time   =      22.42 seconds =       0.37 minutes
	system time =       5.15 seconds =       0.09 minutes
	total time  =          2 seconds =       0.03 minutes

    Psi4 stopped on: Sunday, 10 August 2025 05:37PM
    Psi4 wall time for execution: 0:00:02.63

*** Psi4 exiting successfully. Buy a developer a beer!
