                               Psi4 1.9.1 release

  ==> Input File <==

--------------------------------------------------------------------------
molecule {
-1 2
N           0.000000           0.000000           0.000000
N           0.000000           0.000000           1.029642
}

set {
basis              cc-pvtz
reference          uks
maxiter            500
DAMPING_PERCENTAGE 1
E_CONVERGENCE      1.0E-8
D_CONVERGENCE      1.0E-8
DIIS_MAX_VECS      400
MBIS_MAXITER       8000
guess              read
}

E, wfn = energy('b3lyp', restart_file='last_wfn', return_wfn=True)
properties('b3lyp','MBIS_CHARGES', wfn=wfn)
wfn.to_file('last_wfn')
--------------------------------------------------------------------------

    Molecular point group: d2h
  Charge       = -1
  Multiplicity = 2
  Basis Set: CC-PVTZ
    Blend: CC-PVTZ
  Basis Set: (CC-PVTZ AUX)
    Blend: CC-PVTZ-JKFIT
  @DF-UKS Final Energy:  -109.42129204642589
    Total Energy =                       -109.4212920464258900
 Dipole X            :          0.0000000            0.0000000            0.0000000
 Dipole Y            :          0.0000000            0.0000000            0.0000000
 Dipole Z            :          0.0000000            0.0000000            0.0000000
 Magnitude           :                                                    0.0000000
    Molecular point group: d2h

    Geometry (in Angstrom), charge = -1, multiplicity = 2:

       Center              X                  Y                   Z               Mass
    ------------   -----------------  -----------------  -----------------  -----------------
         N            0.000000000000     0.000000000000    -0.514821000000    14.003074004430
         N            0.000000000000     0.000000000000     0.514821000000    14.003074004430

  Charge       = -1
  Multiplicity = 2
  Basis Set: CC-PVTZ
    Blend: CC-PVTZ
  Basis Set: (CC-PVTZ AUX)
    Blend: CC-PVTZ-JKFIT

    Orbital Energies [Eh]
    ---------------------

    Alpha Occupied:

       1Ag   -13.982870     1B1u  -13.979732     2Ag    -0.778262
       2B1u   -0.182371     1B3u   -0.140061     1B2u   -0.122798
       3Ag    -0.075154     1B2g    0.261669

    Alpha Virtual:

       1B3g    0.351086     3B1u    0.557804     2B3u    0.676639
       2B2u    0.676963     4Ag     0.682782     5Ag     0.818723
       2B2g    0.820973     2B3g    0.838673     4B1u    1.059220
       1B1g    1.174253     6Ag     1.175361     5B1u    1.279939
       3B3u    1.484526     3B2u    1.486395     1Au     1.618916
       6B1u    1.620594     7Ag     1.994788     3B2g    2.010191
       3B3g    2.014836     7B1u    2.420141     4B3u    3.094497
       4B2u    3.101352     8Ag     3.334961     4B2g    3.511995
       4B3g    3.518984     8B1u    3.688161     2B1g    3.860848
       9Ag     3.861765     5B3u    3.934382     5B2u    3.934510
       6B2u    4.033740     6B3u    4.035272    10Ag     4.412952
       5B2g    4.499406     5B3g    4.499592     3B1g    4.738116
      11Ag     4.740486     6B2g    4.769019     6B3g    4.774140
       2Au     4.862521     9B1u    4.865018    10B1u    5.170737
      12Ag     5.360466     3Au     5.440452    11B1u    5.441635
       7B2u    5.470638     7B3u    5.470731    12B1u    6.304318
       7B2g    7.088233     7B3g    7.088441    13Ag     7.351118
      13B1u   18.828724

    Beta Occupied:

       1Ag   -13.973774     1B1u  -13.970548     2Ag    -0.763428
       2B1u   -0.149593     1B2u   -0.115013     1B3u   -0.083188
       3Ag    -0.056875

    Beta Virtual:

       1B3g    0.361841     1B2g    0.391733     3B1u    0.564499
       2B2u    0.680695     4Ag     0.688135     2B3u    0.699959
       5Ag     0.829116     2B3g    0.846310     2B2g    0.868319
       4B1u    1.075406     1B1g    1.190809     6Ag     1.191091
       5B1u    1.297666     3B2u    1.489018     3B3u    1.514755
       1Au     1.649177     6B1u    1.649426     7Ag     2.002946
       3B3g    2.018844     3B2g    2.040896     7B1u    2.431666
       4B2u    3.108387     4B3u    3.136748     8Ag     3.343655
       4B3g    3.527147     4B2g    3.557494     8B1u    3.706516
       2B1g    3.874085     9Ag     3.874450     5B2u    3.958402
       5B3u    3.958471     6B2u    4.036746     6B3u    4.061693
      10Ag     4.423891     5B3g    4.530062     5B2g    4.530081
       3B1g    4.776663    11Ag     4.776867     6B3g    4.777059
       6B2g    4.802380     9B1u    4.902580     2Au     4.902984
      10B1u    5.184701    12Ag     5.375052     3Au     5.461376
      11B1u    5.462047     7B2u    5.473689     7B3u    5.501543
      12B1u    6.316149     7B3g    7.092200     7B2g    7.119316
      13Ag     7.365352    13B1u   18.841198

    Final Occupation by Irrep:
             Ag   B1g   B2g   B3g    Au   B1u   B2u   B3u
    DOCC [     3,    0,    0,    0,    0,    2,    1,    1 ]
    SOCC [     0,    0,    1,    0,    0,    0,    0,    0 ]
    NA   [     3,    0,    1,    0,    0,    2,    1,    1 ]
    NB   [     3,    0,    0,    0,    0,    2,    1,    1 ]

  @DF-UKS Final Energy:  -109.42129204683208

   => Energetics <=

    Nuclear Repulsion Energy =             25.1832028247002349
    One-Electron Energy =                -202.8634062718764994
    Two-Electron Energy =                  79.7117247886916260
    DFT Exchange-Correlation Energy =     -11.4528133883474350
    Empirical Dispersion Energy =           0.0000000000000000
    VV10 Nonlocal Energy =                  0.0000000000000000
    Total Energy =                       -109.4212920468320789

  UHF NO Occupations:
  HONO-2 :    2B1u 1.9997305
  HONO-1 :    1B3u 1.9995196
  HONO-0 :    1B2g 1.0000000
  LUNO+0 :    2B3u 0.0004804
  LUNO+1 :    3B1u 0.0002695
  LUNO+2 :    4 Ag 0.0001417
  LUNO+3 :    2B2u 0.0000196

Computation Completed

Properties will be evaluated at   0.000000,   0.000000,   0.000000 [a0]

Properties computed using the B3LYP density matrix

 Multipole Moments:

 ------------------------------------------------------------------------------------
     Multipole            Electronic (a.u.)      Nuclear  (a.u.)        Total (a.u.)
 ------------------------------------------------------------------------------------

 L = 1.  Multiply by 2.5417464519 to convert [e a0] to [Debye]
 Dipole X            :          0.0000000            0.0000000            0.0000000
 Dipole Y            :          0.0000000            0.0000000            0.0000000
 Dipole Z            :          0.0000000            0.0000000            0.0000000
 Magnitude           :                                                    0.0000000

 L = 2.  Multiply by 1.3450342976 to convert [e a0^2] to [Debye ang]
 Quadrupole XX       :        -10.2159053            0.0000000          -10.2159053
 Quadrupole XY       :          0.0000000            0.0000000            0.0000000
 Quadrupole XZ       :          0.0000000            0.0000000            0.0000000
 Quadrupole YY       :         -8.8849054            0.0000000           -8.8849054
 Quadrupole YZ       :          0.0000000            0.0000000            0.0000000
 Quadrupole ZZ       :        -25.9902623           13.2506834          -12.7395789
 Traceless XX        :          4.8144523           -4.4168945            0.3975579
 Traceless YY        :          6.1454523           -4.4168945            1.7285578
 Traceless ZZ        :        -10.9599046            8.8337889           -2.1261157

 ------------------------------------------------------------------------------------
  ==> Computing MBIS Charges <==

  Electron Count from Grid (Expected Number): 15.00000 (15.00000)
  Difference: -0.00000

  MBIS Charges: (a.u.)
   Center  Symbol  Z      Pop.       Charge
      1       N    7    7.500000   -0.500000
      2       N    7    7.500000   -0.500000

  MBIS Dipoles: [e a0]
   Center  Symbol  Z        X           Y           Z
      1       N    7   -0.000000    0.000000    0.266086
      2       N    7    0.000000   -0.000000   -0.266086

  MBIS Quadrupoles: [e a0^2]
   Center  Symbol  Z      XX        XY        XZ        YY        YZ        ZZ
      1       N    7   -5.1080   -0.0000   -0.0000   -4.4425   -0.0000   -5.3788
      2       N    7   -5.1080   -0.0000    0.0000   -4.4425   -0.0000   -5.3788

  MBIS Octupoles: [e a0^3]
   Center  Symbol  Z      XXX       XXY       XXZ       XYY       XYZ       XZZ       YYY       YYZ       YZZ       ZZZ
      1       N    7   -0.0000   -0.0000    0.6814   -0.0000    0.0000    0.0000   -0.0000    0.3219   -0.0000    0.5690
      2       N    7   -0.0000   -0.0000   -0.6814   -0.0000   -0.0000    0.0000   -0.0000   -0.3219    0.0000   -0.5690

  MBIS Radial Moments:
   Center  Symbol  Z      [a0^2]      [a0^3]      [a0^4]
      1       N    7   14.929222   33.803873   91.161317
      2       N    7   14.929222   33.803873   91.161317

  MBIS Valence Widths: [a0]
   Center  Symbol  Z     Width
      1       N    7    0.463006
      2       N    7    0.463006

*** tstop() called on Mac.lan at Sun Aug 10 17:32:22 2025
Module time:
	user time   =       4.13 seconds =       0.07 minutes
	system time =       1.65 seconds =       0.03 minutes
	total time  =          1 seconds =       0.02 minutes
Total time:
	user time   =      15.87 seconds =       0.26 minutes
	system time =       3.88 seconds =       0.06 minutes
	total time  =          2 seconds =       0.03 minutes

    Psi4 stopped on: Sunday, 10 August 2025 05:32PM
    Psi4 wall time for execution: 0:00:01.93

*** Psi4 exiting successfully. Buy a developer a beer!
