                               Psi4 1.9.1 release

  ==> Input File <==

--------------------------------------------------------------------------
molecule {
-1 2
N           0.000000           0.000000           0.000000
N           0.000000           0.000000           0.415980
}

set {
basis              cc-pvtz
reference          uks
maxiter            500
DAMPING_PERCENTAGE 1
E_CONVERGENCE      1.0E-8
D_CONVERGENCE      1.0E-8
DIIS_MAX_VECS      400
MBIS_MAXITER       8000
guess              read
}

E, wfn = energy('b3lyp', restart_file='last_wfn', return_wfn=True)
properties('b3lyp','MBIS_CHARGES', wfn=wfn)
wfn.to_file('last_wfn')
--------------------------------------------------------------------------

    Molecular point group: d2h
  Charge       = -1
  Multiplicity = 2
  Basis Set: CC-PVTZ
    Blend: CC-PVTZ
  Basis Set: (CC-PVTZ AUX)
    Blend: CC-PVTZ-JKFIT
  @DF-UKS Final Energy:   -99.55116651714359
    Total Energy =                        -99.5511665171435851
 Dipole X            :          0.0000000            0.0000000            0.0000000
 Dipole Y            :          0.0000000            0.0000000            0.0000000
 Dipole Z            :          0.0000000           -0.0000000           -0.0000000
 Magnitude           :                                                    0.0000000
    Molecular point group: d2h

    Geometry (in Angstrom), charge = -1, multiplicity = 2:

       Center              X                  Y                   Z               Mass
    ------------   -----------------  -----------------  -----------------  -----------------
         N            0.000000000000     0.000000000000    -0.207990000000    14.003074004430
         N            0.000000000000     0.000000000000     0.207990000000    14.003074004430

  Charge       = -1
  Multiplicity = 2
  Basis Set: CC-PVTZ
    Blend: CC-PVTZ
  Basis Set: (CC-PVTZ AUX)
    Blend: CC-PVTZ-JKFIT

    Orbital Energies [Eh]
    ---------------------

    Alpha Occupied:

       1Ag   -15.910860     1B1u  -14.345349     1B2u   -0.942659
       1B3u   -0.938961     2Ag    -0.741230     2B1u   -0.076972
       3Ag     0.221961     1B2g    0.463216

    Alpha Virtual:

       2B3u    0.474201     2B2u    0.479188     3B1u    0.507277
       1B3g    0.536077     4Ag     0.630816     5Ag     0.782553
       2B2g    1.094986     2B3g    1.105796     1B1g    1.124335
       6Ag     1.124678     4B1u    1.255722     3B3u    1.703389
       3B2u    1.703911     1Au     1.707799     5B1u    1.710117
       6B1u    1.775613     7Ag     1.920469     3B2g    2.219638
       3B3g    2.223219     4B2u    2.229122     4B3u    2.234116
       8Ag     3.171370     5B3u    3.756936     5B2u    3.756954
       7B1u    3.791864     2B1g    3.795838     9Ag     3.795982
       8B1u    4.216616     2Au     4.293040     9B1u    4.294196
       6B3u    4.332455     6B2u    4.332674     4B3g    4.374864
       4B2g    4.375267     5B2g    5.071516     5B3g    5.071542
      10Ag     5.123761    11Ag     5.124251     3B1g    5.124943
      12Ag     5.138624     6B3g    5.227619     6B2g    5.229203
      13Ag     7.482221    10B1u    7.566977     3Au     8.176028
      11B1u    8.176571     7B2u    8.364533     7B3u    8.366407
       7B3g   10.683969     7B2g   10.684327    12B1u   13.250840
      13B1u   37.287005

    Beta Occupied:

       1Ag   -15.912844     1B1u  -14.346655     1B2u   -0.943395
       1B3u   -0.934517     2Ag    -0.737779     2B1u   -0.066436
       3Ag     0.223742

    Beta Virtual:

       2B2u    0.483456     2B3u    0.505016     3B1u    0.525894
       1B3g    0.550725     1B2g    0.569150     4Ag     0.643503
       5Ag     0.785205     2B3g    1.111334     2B2g    1.126650
       1B1g    1.127943     6Ag     1.128360     4B1u    1.275357
       3B2u    1.704801     3B3u    1.723895     5B1u    1.731930
       1Au     1.732446     6B1u    1.783702     7Ag     1.920806
       3B3g    2.226888     4B2u    2.230828     3B2g    2.242413
       4B3u    2.245018     8Ag     3.178831     5B2u    3.759760
       5B3u    3.759760     2B1g    3.797745     9Ag     3.797857
       7B1u    3.798110     8B1u    4.216790     2Au     4.306308
       9B1u    4.306874     6B2u    4.329668     6B3u    4.341349
       4B3g    4.376858     4B2g    4.391077     5B3g    5.081186
       5B2g    5.081198    10Ag     5.123440    11Ag     5.129275
       3B1g    5.130972    12Ag     5.143164     6B3g    5.226004
       6B2g    5.237877    13Ag     7.479164    10B1u    7.568305
       3Au     8.183632    11B1u    8.183661     7B2u    8.362545
       7B3u    8.371146     7B3g   10.683761     7B2g   10.691717
      12B1u   13.248263    13B1u   37.286998

    Final Occupation by Irrep:
             Ag   B1g   B2g   B3g    Au   B1u   B2u   B3u
    DOCC [     3,    0,    0,    0,    0,    2,    1,    1 ]
    SOCC [     0,    0,    1,    0,    0,    0,    0,    0 ]
    NA   [     3,    0,    1,    0,    0,    2,    1,    1 ]
    NB   [     3,    0,    0,    0,    0,    2,    1,    1 ]

  @DF-UKS Final Energy:   -99.55116651729992

   => Energetics <=

    Nuclear Repulsion Energy =             62.3339663513390008
    One-Electron Energy =                -249.7462011460244469
    Two-Electron Energy =                 100.4820828271117108
    DFT Exchange-Correlation Energy =     -12.6210145497261799
    Empirical Dispersion Energy =           0.0000000000000000
    VV10 Nonlocal Energy =                  0.0000000000000000
    Total Energy =                        -99.5511665172999187

  UHF NO Occupations:
  HONO-2 :    2B1u 1.9997353
  HONO-1 :    3 Ag 1.9990226
  HONO-0 :    1B2g 1.0000000
  LUNO+0 :    4 Ag 0.0009774
  LUNO+1 :    3B1u 0.0002647
  LUNO+2 :    2B3u 0.0000134
  LUNO+3 :    5 Ag 0.0000042

Computation Completed

Properties will be evaluated at   0.000000,   0.000000,   0.000000 [a0]

Properties computed using the B3LYP density matrix

 Multipole Moments:

 ------------------------------------------------------------------------------------
     Multipole            Electronic (a.u.)      Nuclear  (a.u.)        Total (a.u.)
 ------------------------------------------------------------------------------------

 L = 1.  Multiply by 2.5417464519 to convert [e a0] to [Debye]
 Dipole X            :          0.0000000            0.0000000            0.0000000
 Dipole Y            :          0.0000000            0.0000000            0.0000000
 Dipole Z            :          0.0000000           -0.0000000           -0.0000000
 Magnitude           :                                                    0.0000000

 L = 2.  Multiply by 1.3450342976 to convert [e a0^2] to [Debye ang]
 Quadrupole XX       :        -10.4236795            0.0000000          -10.4236795
 Quadrupole XY       :          0.0000000            0.0000000            0.0000000
 Quadrupole XZ       :          0.0000000            0.0000000            0.0000000
 Quadrupole YY       :         -7.2462307            0.0000000           -7.2462307
 Quadrupole YZ       :          0.0000000            0.0000000            0.0000000
 Quadrupole ZZ       :        -17.5594560            2.1627717          -15.3966843
 Traceless XX        :          1.3194426           -0.7209239            0.5985187
 Traceless YY        :          4.4968913           -0.7209239            3.7759674
 Traceless ZZ        :         -5.8163339            1.4418478           -4.3744861

 ------------------------------------------------------------------------------------
  ==> Computing MBIS Charges <==

  Electron Count from Grid (Expected Number): 15.00000 (15.00000)
  Difference: -0.00000

  MBIS Charges: (a.u.)
   Center  Symbol  Z      Pop.       Charge
      1       N    7    7.499999   -0.499999
      2       N    7    7.499999   -0.499999

  MBIS Dipoles: [e a0]
   Center  Symbol  Z        X           Y           Z
      1       N    7   -0.000000   -0.000000    0.483264
      2       N    7    0.000000   -0.000000   -0.483264

  MBIS Quadrupoles: [e a0^2]
   Center  Symbol  Z      XX        XY        XZ        YY        YZ        ZZ
      1       N    7   -5.2118   -0.0000   -0.0000   -3.6231    0.0000   -7.2412
      2       N    7   -5.2118    0.0000    0.0000   -3.6231   -0.0000   -7.2412

  MBIS Octupoles: [e a0^3]
   Center  Symbol  Z      XXX       XXY       XXZ       XYY       XYZ       XZZ       YYY       YYZ       YZZ       ZZZ
      1       N    7   -0.0000    0.0000    1.7143   -0.0000    0.0000    0.0000    0.0000    0.8644   -0.0000    2.4435
      2       N    7    0.0000    0.0000   -1.7143   -0.0000    0.0000    0.0000    0.0000   -0.8644    0.0000   -2.4435

  MBIS Radial Moments:
   Center  Symbol  Z      [a0^2]      [a0^3]      [a0^4]
      1       N    7   16.076168   42.883357   138.238143
      2       N    7   16.076168   42.883357   138.238143

  MBIS Valence Widths: [a0]
   Center  Symbol  Z     Width
      1       N    7    0.469003
      2       N    7    0.469003

*** tstop() called on Mac.lan at Sun Aug 10 17:33:20 2025
Module time:
	user time   =       4.18 seconds =       0.07 minutes
	system time =       3.08 seconds =       0.05 minutes
	total time  =          1 seconds =       0.02 minutes
Total time:
	user time   =      18.92 seconds =       0.32 minutes
	system time =       5.93 seconds =       0.10 minutes
	total time  =          2 seconds =       0.03 minutes

    Psi4 stopped on: Sunday, 10 August 2025 05:33PM
    Psi4 wall time for execution: 0:00:02.41

*** Psi4 exiting successfully. Buy a developer a beer!
