                               Psi4 1.9.1 release

  ==> Input File <==

--------------------------------------------------------------------------
molecule {
-1 3
O           0.000000           0.000000           0.000000
N           0.000000           0.000000           0.861100
}

set {
basis              cc-pvtz
reference          uks
maxiter            500
DAMPING_PERCENTAGE 1
E_CONVERGENCE      1.0E-8
D_CONVERGENCE      1.0E-8
DIIS_MAX_VECS      400
MBIS_MAXITER       8000
guess              read
}

E, wfn = energy('b3lyp', restart_file='last_wfn', return_wfn=True)
properties('b3lyp','MBIS_CHARGES', wfn=wfn)
wfn.to_file('last_wfn')
--------------------------------------------------------------------------

    Molecular point group: c2v
  Charge       = -1
  Multiplicity = 3
  Basis Set: CC-PVTZ
    Blend: CC-PVTZ
  Basis Set: (CC-PVTZ AUX)
    Blend: CC-PVTZ-JKFIT
  @DF-UKS Final Energy:  -129.42924407688164
    Total Energy =                       -129.4292440768816448
 Dipole X            :          0.0000000            0.0000000            0.0000000
 Dipole Y            :          0.0000000            0.0000000            0.0000000
 Dipole Z            :         -0.8495003           -0.0032650           -0.8527653
 Magnitude           :                                                    0.8527653
    Molecular point group: c2v

    Geometry (in Angstrom), charge = -1, multiplicity = 3:

       Center              X                  Y                   Z               Mass
    ------------   -----------------  -----------------  -----------------  -----------------
         O            0.000000000000     0.000000000000    -0.401961850721    15.994914619570
         N            0.000000000000     0.000000000000     0.459138149279    14.003074004430

  Charge       = -1
  Multiplicity = 3
  Basis Set: CC-PVTZ
    Blend: CC-PVTZ
  Basis Set: (CC-PVTZ AUX)
    Blend: CC-PVTZ-JKFIT

    Orbital Energies [Eh]
    ---------------------

    Alpha Occupied:

       1A1   -18.828504     2A1   -13.966606     3A1    -1.093861
       1B2    -0.302098     1B1    -0.302098     4A1    -0.289723
       5A1    -0.126554     2B2     0.299014     2B1     0.299014

    Alpha Virtual:

       6A1     0.515297     3B2     0.679400     3B1     0.679400
       7A1     0.711431     8A1     0.834195     4B1     0.909685
       4B2     0.909685     9A1     1.252560     1A2     1.252561
      10A1     1.463120    11A1     1.542814     5B1     1.656037
       5B2     1.656037     2A2     1.964556    12A1     1.964557
      13A1     2.317336     6B1     2.413666     6B2     2.413666
      14A1     2.938462     7B2     3.099126     7B1     3.099126
      15A1     3.593663    16A1     4.099003     8B1     4.101601
       8B2     4.101601     9B1     4.241789     9B2     4.241789
      17A1     4.292749     3A2     4.292749    10B1     4.585146
      10B2     4.585146     4A2     4.756495    18A1     4.756495
      19A1     5.061839    11B1     5.262281    11B2     5.262281
      12B1     5.536306    12B2     5.536306    20A1     6.190981
       5A2     6.508258    21A1     6.508259    22A1     6.680583
       6A2     6.680583    13B1     6.954364    13B2     6.954364
      23A1     7.230805    24A1     7.922235    14B1     8.575928
      14B2     8.575928    25A1     9.738679    26A1    22.546212

    Beta Occupied:

       1A1   -18.809855     2A1   -13.948969     3A1    -1.068374
       1B2    -0.240298     1B1    -0.240298     4A1    -0.239606
       5A1    -0.068708

    Beta Virtual:

       2B1     0.443810     2B2     0.443810     6A1     0.527667
       3B2     0.710633     3B1     0.710633     7A1     0.732098
       8A1     0.863023     4B1     0.962068     4B2     0.962068
       1A2     1.293664     9A1     1.293665    10A1     1.497000
      11A1     1.562562     5B1     1.693659     5B2     1.693659
      12A1     2.017090     2A2     2.017091    13A1     2.337945
       6B1     2.447761     6B2     2.447761    14A1     2.972811
       7B2     3.150778     7B1     3.150778    15A1     3.622821
      16A1     4.125471     8B1     4.156022     8B2     4.156022
       9B1     4.291012     9B2     4.291012    17A1     4.323135
       3A2     4.323135    10B1     4.621942    10B2     4.621942
      18A1     4.833177     4A2     4.833178    19A1     5.087355
      11B1     5.293790    11B2     5.293790    12B1     5.585458
      12B2     5.585458    20A1     6.218094     5A2     6.575221
      21A1     6.575222    22A1     6.721060     6A2     6.721060
      13B1     6.987275    13B2     6.987275    23A1     7.248170
      24A1     7.943772    14B1     8.614465    14B2     8.614465
      25A1     9.772334    26A1    22.572110

    Final Occupation by Irrep:
             A1    A2    B1    B2
    DOCC [     5,    0,    1,    1 ]
    SOCC [     0,    0,    1,    1 ]
    NA   [     5,    0,    2,    2 ]
    NB   [     5,    0,    1,    1 ]

  @DF-UKS Final Energy:  -129.42924407661241

   => Energetics <=

    Nuclear Repulsion Energy =             34.4140329781906900
    One-Electron Energy =                -249.3908783690316113
    Two-Electron Energy =                  98.6045463723542639
    DFT Exchange-Correlation Energy =     -13.0569450581257396
    Empirical Dispersion Energy =           0.0000000000000000
    VV10 Nonlocal Energy =                  0.0000000000000000
    Total Energy =                       -129.4292440766124059

  UHF NO Occupations:
  HONO-2 :    5 A1 1.9996244
  HONO-1 :    2 B2 1.0000000
  HONO-0 :    2 B1 1.0000000
  LUNO+0 :    6 A1 0.0003756
  LUNO+1 :    3 B2 0.0002997
  LUNO+2 :    3 B1 0.0002997
  LUNO+3 :    7 A1 0.0001185

Computation Completed

Properties will be evaluated at   0.000000,   0.000000,   0.000000 [a0]

Properties computed using the B3LYP density matrix

 Multipole Moments:

 ------------------------------------------------------------------------------------
     Multipole            Electronic (a.u.)      Nuclear  (a.u.)        Total (a.u.)
 ------------------------------------------------------------------------------------

 L = 1.  Multiply by 2.5417464519 to convert [e a0] to [Debye]
 Dipole X            :          0.0000000            0.0000000            0.0000000
 Dipole Y            :          0.0000000            0.0000000            0.0000000
 Dipole Z            :         -0.8495003           -0.0032650           -0.8527653
 Magnitude           :                                                    0.8527653

 L = 2.  Multiply by 1.3450342976 to convert [e a0^2] to [Debye ang]
 Quadrupole XX       :         -9.3907121            0.0000000           -9.3907121
 Quadrupole XY       :          0.0000000            0.0000000            0.0000000
 Quadrupole XZ       :          0.0000000            0.0000000            0.0000000
 Quadrupole YY       :         -9.3907121            0.0000000           -9.3907121
 Quadrupole YZ       :          0.0000000            0.0000000            0.0000000
 Quadrupole ZZ       :        -21.9058938            9.8855699          -12.0203239
 Traceless XX        :          4.1717272           -3.2951900            0.8765373
 Traceless YY        :          4.1717272           -3.2951900            0.8765373
 Traceless ZZ        :         -8.3434545            6.5903799           -1.7530745

 ------------------------------------------------------------------------------------
  ==> Computing MBIS Charges <==

  Electron Count from Grid (Expected Number): 16.00000 (16.00000)
  Difference: -0.00000

  MBIS Charges: (a.u.)
   Center  Symbol  Z      Pop.       Charge
      1       O    8    8.081714   -0.081714
      2       N    7    7.918286   -0.918286

  MBIS Dipoles: [e a0]
   Center  Symbol  Z        X           Y           Z
      1       O    8    0.000000    0.000000    0.244606
      2       N    7    0.000000    0.000000   -0.362695

  MBIS Quadrupoles: [e a0^2]
   Center  Symbol  Z      XX        XY        XZ        YY        YZ        ZZ
      1       O    8   -3.4596    0.0000    0.0000   -3.4596    0.0000   -4.0155
      2       N    7   -5.9311   -0.0000    0.0000   -5.9311    0.0000   -6.2654

  MBIS Octupoles: [e a0^3]
   Center  Symbol  Z      XXX       XXY       XXZ       XYY       XYZ       XZZ       YYY       YYZ       YZZ       ZZZ
      1       O    8    0.0000   -0.0000    0.3791    0.0000    0.0000   -0.0000   -0.0000    0.3791   -0.0000    0.5919
      2       N    7    0.0000    0.0000   -1.1542    0.0000   -0.0000    0.0000    0.0000   -1.1542    0.0000    0.2137

  MBIS Radial Moments:
   Center  Symbol  Z      [a0^2]      [a0^3]      [a0^4]
      1       O    8   10.934684   20.415108   46.071291
      2       N    7   18.127637   44.307560   128.051032

  MBIS Valence Widths: [a0]
   Center  Symbol  Z     Width
      1       O    8    0.374843
      2       N    7    0.492304

*** tstop() called on Mac.lan at Sun Aug 10 17:45:56 2025
Module time:
	user time   =       3.28 seconds =       0.05 minutes
	system time =       2.37 seconds =       0.04 minutes
	total time  =          1 seconds =       0.02 minutes
Total time:
	user time   =      16.80 seconds =       0.28 minutes
	system time =       4.65 seconds =       0.08 minutes
	total time  =          2 seconds =       0.03 minutes

    Psi4 stopped on: Sunday, 10 August 2025 05:45PM
    Psi4 wall time for execution: 0:00:02.08

*** Psi4 exiting successfully. Buy a developer a beer!
