                               Psi4 1.9.1 release

  ==> Input File <==

--------------------------------------------------------------------------
molecule {
-1 3
O           0.000000           0.000000           0.000000
N           0.000000           0.000000           1.307836
}

set {
basis              cc-pvtz
reference          uks
maxiter            500
DAMPING_PERCENTAGE 1
E_CONVERGENCE      1.0E-8
D_CONVERGENCE      1.0E-8
DIIS_MAX_VECS      400
MBIS_MAXITER       8000
guess              read
}

E, wfn = energy('b3lyp', restart_file='last_wfn', return_wfn=True)
properties('b3lyp','MBIS_CHARGES', wfn=wfn)
wfn.to_file('last_wfn')
--------------------------------------------------------------------------

    Molecular point group: c2v
  Charge       = -1
  Multiplicity = 3
  Basis Set: CC-PVTZ
    Blend: CC-PVTZ
  Basis Set: (CC-PVTZ AUX)
    Blend: CC-PVTZ-JKFIT
  @DF-UKS Final Energy:  -129.92967209607895
    Total Energy =                       -129.9296720960789457
 Dipole X            :          0.0000000            0.0000000            0.0000000
 Dipole Y            :          0.0000000            0.0000000            0.0000000
 Dipole Z            :         -0.2311558           -0.0049589           -0.2361147
 Magnitude           :                                                    0.2361147
    Molecular point group: c2v

    Geometry (in Angstrom), charge = -1, multiplicity = 3:

       Center              X                  Y                   Z               Mass
    ------------   -----------------  -----------------  -----------------  -----------------
         O            0.000000000000     0.000000000000    -0.610498407850    15.994914619570
         N            0.000000000000     0.000000000000     0.697337592150    14.003074004430

  Charge       = -1
  Multiplicity = 3
  Basis Set: CC-PVTZ
    Blend: CC-PVTZ
  Basis Set: (CC-PVTZ AUX)
    Blend: CC-PVTZ-JKFIT

    Orbital Energies [Eh]
    ---------------------

    Alpha Occupied:

       1A1   -18.840315     2A1   -14.039610     3A1    -0.749725
       4A1    -0.347985     1B2    -0.109163     1B1    -0.109163
       5A1    -0.095906     2B2     0.112077     2B1     0.112077

    Alpha Virtual:

       6A1     0.481761     3B1     0.727135     3B2     0.727135
       7A1     0.748242     8A1     0.771047     9A1     0.875481
       4B2     0.899347     4B1     0.899347     1A2     1.286831
      10A1     1.286832     5B2     1.408662     5B1     1.408662
      11A1     1.494487    12A1     1.837012     2A2     1.837012
      13A1     1.887410     6B1     2.262508     6B2     2.262508
      14A1     2.451855     7B2     3.164328     7B1     3.164328
      15A1     3.423345     8B1     3.835457     8B2     3.835457
       3A2     4.133405    16A1     4.133405     9B1     4.170274
       9B2     4.170274    17A1     4.307668    10B1     4.388648
      10B2     4.388648    18A1     4.625455    19A1     4.722392
       4A2     4.722394    20A1     4.926358    11B1     5.014583
      11B2     5.014583    12B2     5.427874    12B1     5.427874
      21A1     5.683241     5A2     5.683242    22A1     6.033379
      13B2     6.379262    13B1     6.379262    23A1     6.526699
       6A2     6.526710    24A1     6.895146    14B1     7.045776
      14B2     7.045776    25A1     7.680791    26A1    10.551389

    Beta Occupied:

       1A1   -18.821401     2A1   -14.010779     3A1    -0.706039
       4A1    -0.272687     5A1    -0.060757     1B2    -0.033594
       1B1    -0.033594

    Beta Virtual:

       2B2     0.279906     2B1     0.279906     6A1     0.504483
       7A1     0.774505     3B1     0.778760     3B2     0.778760
       8A1     0.796679     9A1     0.892164     4B2     0.931030
       4B1     0.931030     1A2     1.341429    10A1     1.341429
       5B2     1.438817     5B1     1.438817    11A1     1.515196
      12A1     1.876571     2A2     1.876571    13A1     1.912685
       6B1     2.291295     6B2     2.291295    14A1     2.473541
       7B2     3.244226     7B1     3.244226    15A1     3.447323
       8B1     3.882564     8B2     3.882564     3A2     4.181972
      16A1     4.181973     9B2     4.256921     9B1     4.256921
      17A1     4.344939    10B1     4.428324    10B2     4.428324
      18A1     4.650480    19A1     4.841323     4A2     4.841325
      20A1     4.968921    11B1     5.069576    11B2     5.069576
      12B2     5.472611    12B1     5.472611    21A1     5.716109
       5A2     5.716110    22A1     6.059395    13B2     6.412202
      13B1     6.412202    23A1     6.594403     6A2     6.594414
      24A1     6.915729    14B1     7.077552    14B2     7.077552
      25A1     7.714202    26A1    10.584890

    Final Occupation by Irrep:
             A1    A2    B1    B2
    DOCC [     5,    0,    1,    1 ]
    SOCC [     0,    0,    1,    1 ]
    NA   [     5,    0,    2,    2 ]
    NB   [     5,    0,    1,    1 ]

  @DF-UKS Final Energy:  -129.92967209620645

   => Energetics <=

    Nuclear Repulsion Energy =             22.6587460488318122
    One-Electron Energy =                -228.0757653928806121
    Two-Electron Energy =                  88.1413027967671070
    DFT Exchange-Correlation Energy =     -12.6539555489247384
    Empirical Dispersion Energy =           0.0000000000000000
    VV10 Nonlocal Energy =                  0.0000000000000000
    Total Energy =                       -129.9296720962064455

  UHF NO Occupations:
  HONO-2 :    1 B1 1.9985570
  HONO-1 :    2 B2 1.0000000
  HONO-0 :    2 B1 1.0000000
  LUNO+0 :    3 B1 0.0014430
  LUNO+1 :    3 B2 0.0014430
  LUNO+2 :    6 A1 0.0012320
  LUNO+3 :    7 A1 0.0002011

Computation Completed

Properties will be evaluated at   0.000000,   0.000000,   0.000000 [a0]

Properties computed using the B3LYP density matrix

 Multipole Moments:

 ------------------------------------------------------------------------------------
     Multipole            Electronic (a.u.)      Nuclear  (a.u.)        Total (a.u.)
 ------------------------------------------------------------------------------------

 L = 1.  Multiply by 2.5417464519 to convert [e a0] to [Debye]
 Dipole X            :          0.0000000            0.0000000            0.0000000
 Dipole Y            :          0.0000000            0.0000000            0.0000000
 Dipole Z            :         -0.2311558           -0.0049589           -0.2361147
 Magnitude           :                                                    0.2361147

 L = 2.  Multiply by 1.3450342976 to convert [e a0^2] to [Debye ang]
 Quadrupole XX       :         -9.6270414            0.0000000           -9.6270414
 Quadrupole XY       :          0.0000000            0.0000000            0.0000000
 Quadrupole XZ       :          0.0000000            0.0000000            0.0000000
 Quadrupole YY       :         -9.6270414            0.0000000           -9.6270414
 Quadrupole YZ       :          0.0000000            0.0000000            0.0000000
 Quadrupole ZZ       :        -35.0572333           22.8034790          -12.2537544
 Traceless XX        :          8.4767306           -7.6011597            0.8755710
 Traceless YY        :          8.4767306           -7.6011597            0.8755710
 Traceless ZZ        :        -16.9534613           15.2023193           -1.7511420

 ------------------------------------------------------------------------------------
  ==> Computing MBIS Charges <==

  Electron Count from Grid (Expected Number): 16.00000 (16.00000)
  Difference:  0.00000

  MBIS Charges: (a.u.)
   Center  Symbol  Z      Pop.       Charge
      1       O    8    8.469469   -0.469469
      2       N    7    7.530532   -0.530532

  MBIS Dipoles: [e a0]
   Center  Symbol  Z        X           Y           Z
      1       O    8    0.000000    0.000000    0.179351
      2       N    7    0.000000    0.000000   -0.257958

  MBIS Quadrupoles: [e a0^2]
   Center  Symbol  Z      XX        XY        XZ        YY        YZ        ZZ
      1       O    8   -4.4250    0.0000   -0.0000   -4.4250   -0.0000   -4.4216
      2       N    7   -5.2020    0.0000    0.0000   -5.2020    0.0000   -5.1924

  MBIS Octupoles: [e a0^3]
   Center  Symbol  Z      XXX       XXY       XXZ       XYY       XYZ       XZZ       YYY       YYZ       YZZ       ZZZ
      1       O    8   -0.0000   -0.0000    0.2277   -0.0000    0.0000    0.0000   -0.0000    0.2277   -0.0000    0.1160
      2       N    7   -0.0000   -0.0000   -0.3157   -0.0000    0.0000    0.0000   -0.0000   -0.3157    0.0000    0.1472

  MBIS Radial Moments:
   Center  Symbol  Z      [a0^2]      [a0^3]      [a0^4]
      1       O    8   13.271634   26.308724   62.329503
      2       N    7   15.596384   35.694107   96.674629

  MBIS Valence Widths: [a0]
   Center  Symbol  Z     Width
      1       O    8    0.403628
      2       N    7    0.473936

*** tstop() called on Mac.lan at Sun Aug 10 17:46:52 2025
Module time:
	user time   =       3.98 seconds =       0.07 minutes
	system time =       1.88 seconds =       0.03 minutes
	total time  =          1 seconds =       0.02 minutes
Total time:
	user time   =      17.53 seconds =       0.29 minutes
	system time =       4.08 seconds =       0.07 minutes
	total time  =          2 seconds =       0.03 minutes

    Psi4 stopped on: Sunday, 10 August 2025 05:46PM
    Psi4 wall time for execution: 0:00:02.09

*** Psi4 exiting successfully. Buy a developer a beer!
