                               Psi4 1.9.1 release

  ==> Input File <==

--------------------------------------------------------------------------
molecule {
-1 2
O           0.000000           0.000000           0.000000
O           0.000000           0.000000           1.298549
}

set {
basis              cc-pvtz
reference          uks
maxiter            500
DAMPING_PERCENTAGE 1
E_CONVERGENCE      1.0E-8
D_CONVERGENCE      1.0E-8
DIIS_MAX_VECS      400
MBIS_MAXITER       8000
guess              read
}

E, wfn = energy('b3lyp', restart_file='last_wfn', return_wfn=True)
properties('b3lyp','MBIS_CHARGES', wfn=wfn)
wfn.to_file('last_wfn')
--------------------------------------------------------------------------

    Molecular point group: d2h
  Charge       = -1
  Multiplicity = 2
  Basis Set: CC-PVTZ
    Blend: CC-PVTZ
  Basis Set: (CC-PVTZ AUX)
    Blend: CC-PVTZ-JKFIT
  @DF-UKS Final Energy:  -150.37550421012955
    Total Energy =                       -150.3755042101295487
 Dipole X            :          0.0000000            0.0000000            0.0000000
 Dipole Y            :          0.0000000            0.0000000            0.0000000
 Dipole Z            :          0.0000000            0.0000000            0.0000000
 Magnitude           :                                                    0.0000000
    Molecular point group: d2h

    Geometry (in Angstrom), charge = -1, multiplicity = 2:

       Center              X                  Y                   Z               Mass
    ------------   -----------------  -----------------  -----------------  -----------------
         O            0.000000000000     0.000000000000    -0.649274500000    15.994914619570
         O            0.000000000000     0.000000000000     0.649274500000    15.994914619570

  Charge       = -1
  Multiplicity = 2
  Basis Set: CC-PVTZ
    Blend: CC-PVTZ
  Basis Set: (CC-PVTZ AUX)
    Blend: CC-PVTZ-JKFIT

    Orbital Energies [Eh]
    ---------------------

    Alpha Occupied:

       1Ag   -18.827063     1B1u  -18.826950     2Ag    -0.803626
       2B1u   -0.434583     1B2u   -0.128338     3Ag    -0.122501
       1B3u   -0.089553     1B3g    0.078549     1B2g    0.120965

    Alpha Virtual:

       3B1u    0.476944     4B1u    0.808969     2B2u    0.836636
       2B3u    0.859174     4Ag     0.878342     2B3g    0.928126
       2B2g    0.948856     5Ag     1.036032     5B1u    1.549120
       1B1g    1.624545     6Ag     1.624701     3B2u    1.627711
       3B3u    1.652809     1Au     1.962461     6B1u    1.962693
       7Ag     2.365747     3B3g    2.465954     3B2g    2.491994
       7B1u    2.517919     4B2u    3.786867     4B3u    3.821758
       8Ag     3.914637     4B3g    4.036686     4B2g    4.074270
       8B1u    4.996492     5B2u    5.014843     5B3u    5.043737
       9Ag     5.051637     2B1g    5.053153    10Ag     5.184033
       6B2u    5.364251     6B3u    5.364296     5B3g    5.519119
       5B2g    5.519134     2Au     5.916333     9B1u    5.916565
      11Ag     6.448526     3B1g    6.448536     6B3g    6.513232
       6B2g    6.546056    10B1u    6.573809     3Au     6.637828
      11B1u    6.643125     7B2u    6.678232     7B3u    6.712754
      12B1u    6.805409    12Ag     7.158048     7B3g    7.369536
       7B2g    7.399816    13Ag     7.963032    13B1u   10.864733

    Beta Occupied:

       1Ag   -18.812824     1B1u  -18.812659     2Ag    -0.774214
       2B1u   -0.391696     3Ag    -0.105683     1B3u   -0.077890
       1B2u   -0.044051     1B2g    0.135797

    Beta Virtual:

       1B3g    0.245019     3B1u    0.494253     4B1u    0.819093
       2B3u    0.864528     2B2u    0.872418     4Ag     0.884733
       2B2g    0.954791     2B3g    0.968555     5Ag     1.046534
       5B1u    1.566720     1B1g    1.645702     6Ag     1.646910
       3B2u    1.653645     3B3u    1.654408     1Au     1.991633
       6B1u    1.993154     7Ag     2.381213     3B2g    2.495741
       3B3g    2.497693     7B1u    2.527302     4B3u    3.832199
       4B2u    3.848237     8Ag     3.924737     4B2g    4.085868
       4B3g    4.100052     8B1u    5.013710     5B2u    5.044704
       5B3u    5.047974     2B1g    5.073922     9Ag     5.075134
      10Ag     5.199148     6B3u    5.398787     6B2u    5.399074
       5B2g    5.555112     5B3g    5.555405     2Au     5.942067
       9B1u    5.943565     3B1g    6.499396    11Ag     6.502953
       6B2g    6.552787     6B3g    6.561126    10B1u    6.600724
       3Au     6.686606    11B1u    6.690543     7B3u    6.719469
       7B2u    6.729165    12B1u    6.818929    12Ag     7.172738
       7B2g    7.403663     7B3g    7.404680    13Ag     7.989110
      13B1u   10.884678

    Final Occupation by Irrep:
             Ag   B1g   B2g   B3g    Au   B1u   B2u   B3u
    DOCC [     3,    0,    1,    0,    0,    2,    1,    1 ]
    SOCC [     0,    0,    0,    1,    0,    0,    0,    0 ]
    NA   [     3,    0,    1,    1,    0,    2,    1,    1 ]
    NB   [     3,    0,    1,    0,    0,    2,    1,    1 ]

  @DF-UKS Final Energy:  -150.37550421011858

   => Energetics <=

    Nuclear Repulsion Energy =             26.0809114503033754
    One-Electron Energy =                -264.9041952867244163
    Two-Electron Energy =                 102.4991660837585812
    DFT Exchange-Correlation Energy =     -14.0513864574561076
    Empirical Dispersion Energy =           0.0000000000000000
    VV10 Nonlocal Energy =                  0.0000000000000000
    Total Energy =                       -150.3755042101185779

  UHF NO Occupations:
  HONO-2 :    2B1u 1.9997121
  HONO-1 :    1B2u 1.9985780
  HONO-0 :    1B3g 1.0000000
  LUNO+0 :    2B2u 0.0014220
  LUNO+1 :    3B1u 0.0002879
  LUNO+2 :    4 Ag 0.0001460
  LUNO+3 :    2B2g 0.0000508

Computation Completed

Properties will be evaluated at   0.000000,   0.000000,   0.000000 [a0]

Properties computed using the B3LYP density matrix

 Multipole Moments:

 ------------------------------------------------------------------------------------
     Multipole            Electronic (a.u.)      Nuclear  (a.u.)        Total (a.u.)
 ------------------------------------------------------------------------------------

 L = 1.  Multiply by 2.5417464519 to convert [e a0] to [Debye]
 Dipole X            :          0.0000000            0.0000000            0.0000000
 Dipole Y            :          0.0000000            0.0000000            0.0000000
 Dipole Z            :          0.0000000            0.0000000            0.0000000
 Magnitude           :                                                    0.0000000

 L = 2.  Multiply by 1.3450342976 to convert [e a0^2] to [Debye ang]
 Quadrupole XX       :         -9.5944757            0.0000000           -9.5944757
 Quadrupole XY       :          0.0000000            0.0000000            0.0000000
 Quadrupole XZ       :          0.0000000            0.0000000            0.0000000
 Quadrupole YY       :         -8.7826341            0.0000000           -8.7826341
 Quadrupole YZ       :          0.0000000            0.0000000            0.0000000
 Quadrupole ZZ       :        -35.3931207           24.0865395          -11.3065812
 Traceless XX        :          8.3289345           -8.0288465            0.3000879
 Traceless YY        :          9.1407761           -8.0288465            1.1119296
 Traceless ZZ        :        -17.4697105           16.0576930           -1.4120175

 ------------------------------------------------------------------------------------
  ==> Computing MBIS Charges <==

  Electron Count from Grid (Expected Number): 17.00000 (17.00000)
  Difference: -0.00000

  MBIS Charges: (a.u.)
   Center  Symbol  Z      Pop.       Charge
      1       O    8    8.500000   -0.500000
      2       O    8    8.500000   -0.500000

  MBIS Dipoles: [e a0]
   Center  Symbol  Z        X           Y           Z
      1       O    8   -0.000000    0.000000    0.219698
      2       O    8   -0.000000    0.000000   -0.219698

  MBIS Quadrupoles: [e a0^2]
   Center  Symbol  Z      XX        XY        XZ        YY        YZ        ZZ
      1       O    8   -4.7972   -0.0000   -0.0000   -4.3913    0.0000   -4.3615
      2       O    8   -4.7972   -0.0000    0.0000   -4.3913   -0.0000   -4.3615

  MBIS Octupoles: [e a0^3]
   Center  Symbol  Z      XXX       XXY       XXZ       XYY       XYZ       XZZ       YYY       YYZ       YZZ       ZZZ
      1       O    8   -0.0000    0.0000    0.3499   -0.0000   -0.0000   -0.0000    0.0000    0.2033    0.0000   -0.0699
      2       O    8   -0.0000   -0.0000   -0.3499   -0.0000    0.0000   -0.0000    0.0000   -0.2033    0.0000    0.0699

  MBIS Radial Moments:
   Center  Symbol  Z      [a0^2]      [a0^3]      [a0^4]
      1       O    8   13.550025   27.142279   64.916360
      2       O    8   13.550025   27.142279   64.916360

  MBIS Valence Widths: [a0]
   Center  Symbol  Z     Width
      1       O    8    0.406834
      2       O    8    0.406834

*** tstop() called on Mac.lan at Sun Aug 10 17:28:14 2025
Module time:
	user time   =       3.43 seconds =       0.06 minutes
	system time =       1.90 seconds =       0.03 minutes
	total time  =          0 seconds =       0.00 minutes
Total time:
	user time   =      16.81 seconds =       0.28 minutes
	system time =       3.79 seconds =       0.06 minutes
	total time  =          2 seconds =       0.03 minutes

    Psi4 stopped on: Sunday, 10 August 2025 05:28PM
    Psi4 wall time for execution: 0:00:02.01

*** Psi4 exiting successfully. Buy a developer a beer!
