                               Psi4 1.9.1 release

  ==> Input File <==

--------------------------------------------------------------------------
molecule {
-1 2
H           0.000000           0.000000           0.000000
H           0.000000           0.000000           1.226629
}

set {
basis              cc-pvtz
reference          uks
maxiter            500
DAMPING_PERCENTAGE 1
E_CONVERGENCE      1.0E-8
D_CONVERGENCE      1.0E-8
DIIS_MAX_VECS      400
MBIS_MAXITER       8000
guess              read
}

E, wfn = energy('b3lyp', restart_file='last_wfn', return_wfn=True)
properties('b3lyp','MBIS_CHARGES', wfn=wfn)
wfn.to_file('last_wfn')
--------------------------------------------------------------------------

    Molecular point group: d2h
  Charge       = -1
  Multiplicity = 2
  Basis Set: CC-PVTZ
    Blend: CC-PVTZ
  Basis Set: (CC-PVTZ AUX)
    Blend: CC-PVTZ-JKFIT
  @DF-UKS Final Energy:    -1.05807683598500
    Total Energy =                         -1.0580768359850006
 Dipole X            :          0.0000000            0.0000000            0.0000000
 Dipole Y            :          0.0000000            0.0000000            0.0000000
 Dipole Z            :          0.0000000            0.0000000            0.0000000
 Magnitude           :                                                    0.0000000
    Molecular point group: d2h

    Geometry (in Angstrom), charge = -1, multiplicity = 2:

       Center              X                  Y                   Z               Mass
    ------------   -----------------  -----------------  -----------------  -----------------
         H            0.000000000000     0.000000000000    -0.613314500000     1.007825032230
         H            0.000000000000     0.000000000000     0.613314500000     1.007825032230

  Charge       = -1
  Multiplicity = 2
  Basis Set: CC-PVTZ
    Blend: CC-PVTZ
  Basis Set: (CC-PVTZ AUX)
    Blend: CC-PVTZ-JKFIT

    Orbital Energies [Eh]
    ---------------------

    Alpha Occupied:

       1Ag    -0.060864     1B1u    0.157469

    Alpha Virtual:

       2Ag     0.475976     2B1u    0.577734     1B3u    0.795756
       1B2u    0.795756     3Ag     1.021425     1B3g    1.103542
       1B2g    1.103542     3B1u    1.511686     4Ag     2.568665
       4B1u    2.702661     2B3u    3.165333     2B2u    3.165333
       5Ag     3.229836     6Ag     3.351732     1B1g    3.351733
       5B1u    3.692758     1Au     3.692758     3B2u    3.906884
       3B3u    3.906884     2B3g    3.975934     2B2g    3.975934
       6B1u    4.090548     3B2g    4.452766     3B3g    4.452766
       7Ag     4.592470     7B1u    5.734130

    Beta Occupied:

       1Ag    -0.017315

    Beta Virtual:

       1B1u    0.260259     2Ag     0.494931     2B1u    0.627983
       1B3u    0.814375     1B2u    0.814375     3Ag     1.064152
       1B3g    1.143419     1B2g    1.143419     3B1u    1.554556
       4Ag     2.617648     4B1u    2.754283     2B3u    3.188684
       2B2u    3.188684     5Ag     3.255176     6Ag     3.382275
       1B1g    3.382275     5B1u    3.728413     1Au     3.728413
       3B2u    3.955199     3B3u    3.955199     2B3g    4.022310
       2B2g    4.022310     6B1u    4.147251     3B2g    4.491212
       3B3g    4.491212     7Ag     4.641468     7B1u    5.767312

    Final Occupation by Irrep:
             Ag   B1g   B2g   B3g    Au   B1u   B2u   B3u
    DOCC [     1,    0,    0,    0,    0,    0,    0,    0 ]
    SOCC [     0,    0,    0,    0,    0,    1,    0,    0 ]
    NA   [     1,    0,    0,    0,    0,    1,    0,    0 ]
    NB   [     1,    0,    0,    0,    0,    0,    0,    0 ]

  @DF-UKS Final Energy:    -1.05807683624376

   => Energetics <=

    Nuclear Repulsion Energy =              0.4314077122504035
    One-Electron Energy =                  -2.5662533355771835
    Two-Electron Energy =                   1.7553194248461728
    DFT Exchange-Correlation Energy =      -0.6785506377631559
    Empirical Dispersion Energy =           0.0000000000000000
    VV10 Nonlocal Energy =                  0.0000000000000000
    Total Energy =                         -1.0580768362437629

  UHF NO Occupations:
  HONO-1 :    1 Ag 1.9990520
  HONO-0 :    1B1u 1.0000000
  LUNO+0 :    2 Ag 0.0009480
  LUNO+1 :    2B1u 0.0000000
  LUNO+2 :    3 Ag 0.0000000
  LUNO+3 :    3B1u 0.0000000

Computation Completed

Properties will be evaluated at   0.000000,   0.000000,   0.000000 [a0]

Properties computed using the B3LYP density matrix

 Multipole Moments:

 ------------------------------------------------------------------------------------
     Multipole            Electronic (a.u.)      Nuclear  (a.u.)        Total (a.u.)
 ------------------------------------------------------------------------------------

 L = 1.  Multiply by 2.5417464519 to convert [e a0] to [Debye]
 Dipole X            :          0.0000000            0.0000000            0.0000000
 Dipole Y            :          0.0000000            0.0000000            0.0000000
 Dipole Z            :          0.0000000            0.0000000            0.0000000
 Magnitude           :                                                    0.0000000

 L = 2.  Multiply by 1.3450342976 to convert [e a0^2] to [Debye ang]
 Quadrupole XX       :         -4.3160711            0.0000000           -4.3160711
 Quadrupole XY       :          0.0000000            0.0000000            0.0000000
 Quadrupole XZ       :          0.0000000            0.0000000            0.0000000
 Quadrupole YY       :         -4.3160711            0.0000000           -4.3160711
 Quadrupole YZ       :          0.0000000            0.0000000            0.0000000
 Quadrupole ZZ       :        -10.5805506            2.6865455           -7.8940051
 Traceless XX        :          2.0881598           -0.8955152            1.1926447
 Traceless YY        :          2.0881598           -0.8955152            1.1926447
 Traceless ZZ        :         -4.1763197            1.7910303           -2.3852894

 ------------------------------------------------------------------------------------
  ==> Computing MBIS Charges <==

  Electron Count from Grid (Expected Number):  3.00000 ( 3.00000)
  Difference:  0.00000

  MBIS Charges: (a.u.)
   Center  Symbol  Z      Pop.       Charge
      1       H    1    1.500000   -0.500000
      2       H    1    1.500000   -0.500000

  MBIS Dipoles: [e a0]
   Center  Symbol  Z        X           Y           Z
      1       H    1   -0.000000    0.000000    0.238342
      2       H    1    0.000000   -0.000000   -0.238342

  MBIS Quadrupoles: [e a0^2]
   Center  Symbol  Z      XX        XY        XZ        YY        YZ        ZZ
      1       H    1   -2.1580   -0.0000    0.0000   -2.1580   -0.0000   -2.7229
      2       H    1   -2.1580   -0.0000   -0.0000   -2.1580   -0.0000   -2.7229

  MBIS Octupoles: [e a0^3]
   Center  Symbol  Z      XXX       XXY       XXZ       XYY       XYZ       XZZ       YYY       YYZ       YZZ       ZZZ
      1       H    1    0.0000   -0.0000    0.5712   -0.0000    0.0000    0.0000    0.0000    0.5712   -0.0000    1.0016
      2       H    1    0.0000   -0.0000   -0.5712   -0.0000   -0.0000   -0.0000   -0.0000   -0.5712   -0.0000   -1.0016

  MBIS Radial Moments:
   Center  Symbol  Z      [a0^2]      [a0^3]      [a0^4]
      1       H    1    7.038963   21.698875   77.798324
      2       H    1    7.038963   21.698875   77.798324

  MBIS Valence Widths: [a0]
   Center  Symbol  Z     Width
      1       H    1    0.623105
      2       H    1    0.623105

*** tstop() called on Mac.lan at Sun Aug 10 17:26:18 2025
Module time:
	user time   =       0.46 seconds =       0.01 minutes
	system time =       1.37 seconds =       0.02 minutes
	total time  =          1 seconds =       0.02 minutes
Total time:
	user time   =       1.45 seconds =       0.02 minutes
	system time =       3.61 seconds =       0.06 minutes
	total time  =          1 seconds =       0.02 minutes

    Psi4 stopped on: Sunday, 10 August 2025 05:26PM
    Psi4 wall time for execution: 0:00:00.83

*** Psi4 exiting successfully. Buy a developer a beer!
