                               Psi4 1.9.1 release

  ==> Input File <==

--------------------------------------------------------------------------
molecule {
-1 2
N           0.000000           0.000000           0.000000
N           0.000000           0.000000           1.308579
}

set {
basis              cc-pvtz
reference          uks
maxiter            500
DAMPING_PERCENTAGE 1
E_CONVERGENCE      1.0E-8
D_CONVERGENCE      1.0E-8
DIIS_MAX_VECS      400
MBIS_MAXITER       8000
guess              read
}

E, wfn = energy('b3lyp', restart_file='last_wfn', return_wfn=True)
properties('b3lyp','MBIS_CHARGES', wfn=wfn)
wfn.to_file('last_wfn')
--------------------------------------------------------------------------

    Molecular point group: d2h
  Charge       = -1
  Multiplicity = 2
  Basis Set: CC-PVTZ
    Blend: CC-PVTZ
  Basis Set: (CC-PVTZ AUX)
    Blend: CC-PVTZ-JKFIT
  @DF-UKS Final Energy:  -109.46481374431751
    Total Energy =                       -109.4648137443175102
 Dipole X            :          0.0000000            0.0000000            0.0000000
 Dipole Y            :          0.0000000            0.0000000            0.0000000
 Dipole Z            :          0.0000000            0.0000000            0.0000000
 Magnitude           :                                                    0.0000000
    Molecular point group: d2h

    Geometry (in Angstrom), charge = -1, multiplicity = 2:

       Center              X                  Y                   Z               Mass
    ------------   -----------------  -----------------  -----------------  -----------------
         N            0.000000000000     0.000000000000    -0.654289500000    14.003074004430
         N            0.000000000000     0.000000000000     0.654289500000    14.003074004430

  Charge       = -1
  Multiplicity = 2
  Basis Set: CC-PVTZ
    Blend: CC-PVTZ
  Basis Set: (CC-PVTZ AUX)
    Blend: CC-PVTZ-JKFIT

    Orbital Energies [Eh]
    ---------------------

    Alpha Occupied:

       1Ag   -14.046031     1B1u  -14.045696     2Ag    -0.633239
       2B1u   -0.256174     1B3u   -0.077288     3Ag    -0.060967
       1B2u   -0.051628     1B2g    0.150349

    Alpha Virtual:

       1B3g    0.245402     3B1u    0.509347     2B3u    0.704940
       2B2u    0.709190     4Ag     0.713791     2B2g    0.789019
       4B1u    0.799979     2B3g    0.802467     5Ag     0.806958
       5B1u    1.149458     1B1g    1.193830     6Ag     1.194963
       3B2u    1.324391     3B3u    1.324710     1Au     1.521663
       6B1u    1.523179     3B2g    1.949120     3B3g    1.951015
       7Ag     1.959013     7B1u    1.988138     4B3u    3.067311
       4B2u    3.080469     8Ag     3.215358     4B2g    3.293154
       4B3g    3.303862     2B1g    3.826230     9Ag     3.827320
       5B2u    3.878142     5B3u    3.881975     8B1u    3.937970
       6B3u    4.068102     6B2u    4.068352    10Ag     4.078975
       5B2g    4.310046     5B3g    4.310305     9B1u    4.630044
       3B1g    4.700320    11Ag     4.703465     2Au     4.726362
      10B1u    4.729113     6B2g    4.945969     6B3g    4.954233
       3Au     4.957558    11B1u    4.959567     7B3u    5.087262
       7B2u    5.091838    12B1u    5.482667    12Ag     5.680143
      13Ag     5.944077     7B3g    6.004804     7B2g    6.006872
      13B1u   10.660860

    Beta Occupied:

       1Ag   -14.035033     1B1u  -14.034643     2Ag    -0.611240
       2B1u   -0.220496     3Ag    -0.045810     1B2u   -0.042510
       1B3u   -0.009896

    Beta Virtual:

       1B3g    0.257389     1B2g    0.291187     3B1u    0.519552
       2B2u    0.713672     4Ag     0.719827     2B3u    0.733994
       2B3g    0.809011     4B1u    0.813668     5Ag     0.815299
       2B2g    0.829967     5B1u    1.164915     1B1g    1.211885
       6Ag     1.212075     3B2u    1.325921     3B3u    1.349974
       1Au     1.549833     6B1u    1.549895     3B3g    1.954171
       7Ag     1.971108     3B2g    1.976727     7B1u    1.997014
       4B2u    3.088642     4B3u    3.118892     8Ag     3.223796
       4B3g    3.313021     4B2g    3.345364     9Ag     3.843183
       2B1g    3.843239     5B2u    3.880869     5B3u    3.906174
       8B1u    3.953495    10Ag     4.091960     6B2u    4.099002
       6B3u    4.099059     5B3g    4.343100     5B2g    4.343120
       9B1u    4.645880     3B1g    4.746271    11Ag     4.746342
      10B1u    4.763164     2Au     4.763166     6B3g    4.958775
       6B2g    4.987686     3Au     4.988914    11B1u    4.989815
       7B2u    5.096002     7B3u    5.125995    12B1u    5.495138
      12Ag     5.701352    13Ag     5.955484     7B3g    6.007725
       7B2g    6.034373    13B1u   10.677212

    Final Occupation by Irrep:
             Ag   B1g   B2g   B3g    Au   B1u   B2u   B3u
    DOCC [     3,    0,    0,    0,    0,    2,    1,    1 ]
    SOCC [     0,    0,    1,    0,    0,    0,    0,    0 ]
    NA   [     3,    0,    1,    0,    0,    2,    1,    1 ]
    NB   [     3,    0,    0,    0,    0,    2,    1,    1 ]

  @DF-UKS Final Energy:  -109.46481374362087

   => Energetics <=

    Nuclear Repulsion Energy =             19.8151455302507529
    One-Electron Energy =                -192.4589374533030082
    Two-Electron Energy =                  74.4076495993953841
    DFT Exchange-Correlation Energy =     -11.2286714199640070
    Empirical Dispersion Energy =           0.0000000000000000
    VV10 Nonlocal Energy =                  0.0000000000000000
    Total Energy =                       -109.4648137436208657

  UHF NO Occupations:
  HONO-2 :    2B1u 1.9996331
  HONO-1 :    1B3u 1.9987166
  HONO-0 :    1B2g 1.0000000
  LUNO+0 :    2B3u 0.0012834
  LUNO+1 :    3B1u 0.0003669
  LUNO+2 :    4 Ag 0.0001835
  LUNO+3 :    2B2u 0.0000431

Computation Completed

Properties will be evaluated at   0.000000,   0.000000,   0.000000 [a0]

Properties computed using the B3LYP density matrix

 Multipole Moments:

 ------------------------------------------------------------------------------------
     Multipole            Electronic (a.u.)      Nuclear  (a.u.)        Total (a.u.)
 ------------------------------------------------------------------------------------

 L = 1.  Multiply by 2.5417464519 to convert [e a0] to [Debye]
 Dipole X            :          0.0000000            0.0000000            0.0000000
 Dipole Y            :          0.0000000            0.0000000            0.0000000
 Dipole Z            :          0.0000000            0.0000000            0.0000000
 Magnitude           :                                                    0.0000000

 L = 2.  Multiply by 1.3450342976 to convert [e a0^2] to [Debye ang]
 Quadrupole XX       :        -10.5780439            0.0000000          -10.5780439
 Quadrupole XY       :          0.0000000            0.0000000            0.0000000
 Quadrupole XZ       :          0.0000000            0.0000000            0.0000000
 Quadrupole YY       :         -9.5082061            0.0000000           -9.5082061
 Quadrupole YZ       :          0.0000000            0.0000000            0.0000000
 Quadrupole ZZ       :        -34.4385203           21.4025575          -13.0359629
 Traceless XX        :          7.5968796           -7.1341858            0.4626937
 Traceless YY        :          8.6667173           -7.1341858            1.5325315
 Traceless ZZ        :        -16.2635969           14.2683716           -1.9952253

 ------------------------------------------------------------------------------------
  ==> Computing MBIS Charges <==

  Electron Count from Grid (Expected Number): 15.00000 (15.00000)
  Difference:  0.00000

  MBIS Charges: (a.u.)
   Center  Symbol  Z      Pop.       Charge
      1       N    7    7.500000   -0.500000
      2       N    7    7.500000   -0.500000

  MBIS Dipoles: [e a0]
   Center  Symbol  Z        X           Y           Z
      1       N    7   -0.000000    0.000000    0.185999
      2       N    7    0.000000    0.000000   -0.185999

  MBIS Quadrupoles: [e a0^2]
   Center  Symbol  Z      XX        XY        XZ        YY        YZ        ZZ
      1       N    7   -5.2890    0.0000   -0.0000   -4.7541   -0.0000   -5.2937
      2       N    7   -5.2890    0.0000    0.0000   -4.7541    0.0000   -5.2937

  MBIS Octupoles: [e a0^3]
   Center  Symbol  Z      XXX       XXY       XXZ       XYY       XYZ       XZZ       YYY       YYZ       YZZ       ZZZ
      1       N    7   -0.0000   -0.0000    0.3148   -0.0000    0.0000    0.0000   -0.0000    0.0857   -0.0000    0.0936
      2       N    7   -0.0000   -0.0000   -0.3148   -0.0000   -0.0000    0.0000   -0.0000   -0.0857    0.0000   -0.0936

  MBIS Radial Moments:
   Center  Symbol  Z      [a0^2]      [a0^3]      [a0^4]
      1       N    7   15.336781   34.872924   93.998855
      2       N    7   15.336781   34.872924   93.998855

  MBIS Valence Widths: [a0]
   Center  Symbol  Z     Width
      1       N    7    0.471125
      2       N    7    0.471125

*** tstop() called on Mac.lan at Sun Aug 10 17:33:43 2025
Module time:
	user time   =       5.00 seconds =       0.08 minutes
	system time =       1.77 seconds =       0.03 minutes
	total time  =          1 seconds =       0.02 minutes
Total time:
	user time   =      15.28 seconds =       0.25 minutes
	system time =       3.92 seconds =       0.07 minutes
	total time  =          2 seconds =       0.03 minutes

    Psi4 stopped on: Sunday, 10 August 2025 05:33PM
    Psi4 wall time for execution: 0:00:01.88

*** Psi4 exiting successfully. Buy a developer a beer!
