                               Psi4 1.9.1 release

  ==> Input File <==

--------------------------------------------------------------------------
molecule {
-1 3
O           0.000000           0.000000           0.000000
N           0.000000           0.000000           0.533494
}

set {
basis              cc-pvtz
reference          uks
maxiter            500
DAMPING_PERCENTAGE 1
E_CONVERGENCE      1.0E-8
D_CONVERGENCE      1.0E-8
DIIS_MAX_VECS      400
MBIS_MAXITER       8000
guess              read
}

E, wfn = energy('b3lyp', restart_file='last_wfn', return_wfn=True)
properties('b3lyp','MBIS_CHARGES', wfn=wfn)
wfn.to_file('last_wfn')
--------------------------------------------------------------------------

    Molecular point group: c2v
  Charge       = -1
  Multiplicity = 3
  Basis Set: CC-PVTZ
    Blend: CC-PVTZ
  Basis Set: (CC-PVTZ AUX)
    Blend: CC-PVTZ-JKFIT
  @DF-UKS Final Energy:  -124.97761829520053
    Total Energy =                       -124.9776182952005286
 Dipole X            :          0.0000000            0.0000000            0.0000000
 Dipole Y            :          0.0000000            0.0000000            0.0000000
 Dipole Z            :         -2.3167525           -0.0020228           -2.3187753
 Magnitude           :                                                    2.3187753
    Molecular point group: c2v

    Geometry (in Angstrom), charge = -1, multiplicity = 3:

       Center              X                  Y                   Z               Mass
    ------------   -----------------  -----------------  -----------------  -----------------
         O            0.000000000000     0.000000000000    -0.249035228880    15.994914619570
         N            0.000000000000     0.000000000000     0.284458771120    14.003074004430

  Charge       = -1
  Multiplicity = 3
  Basis Set: CC-PVTZ
    Blend: CC-PVTZ
  Basis Set: (CC-PVTZ AUX)
    Blend: CC-PVTZ-JKFIT

    Orbital Energies [Eh]
    ---------------------

    Alpha Occupied:

       1A1   -19.204767     2A1   -14.390851     3A1    -1.181288
       1B1    -0.815578     1B2    -0.815578     4A1    -0.406747
       5A1    -0.168440     2B2     0.408058     2B1     0.408058

    Alpha Virtual:

       6A1     0.423246     3B1     0.563749     3B2     0.563749
       7A1     0.640194     8A1     0.783488     4B1     1.028505
       4B2     1.028505     9A1     1.158794     1A2     1.158794
      10A1     1.532868     5B1     1.812668     5B2     1.812668
      11A1     1.860505     2A2     1.992692    12A1     1.992692
       6B1     2.063912     6B2     2.063912    13A1     2.159215
       7B1     3.029814     7B2     3.029814    14A1     3.343596
       8B2     3.960144     8B1     3.960144    15A1     3.987442
       3A2     4.259803    16A1     4.259803     9B1     4.442754
       9B2     4.442754    17A1     4.568520     4A2     4.658507
      18A1     4.658507    10B1     4.842540    10B2     4.842540
      19A1     5.476095    11B1     5.801806    11B2     5.801806
      12B1     5.924565    12B2     5.924565    20A1     6.149192
       5A2     6.149192    21A1     6.861673    13B2     7.930408
      13B1     7.930408    22A1     8.316316     6A2     8.408963
      23A1     8.408963    24A1     9.269287    14B2    10.030417
      14B1    10.030417    25A1    11.954230    26A1    31.118891

    Beta Occupied:

       1A1   -19.194754     2A1   -14.393213     3A1    -1.169926
       1B2    -0.797565     1B1    -0.797565     4A1    -0.396408
       5A1    -0.144206

    Beta Virtual:

       6A1     0.451974     2B1     0.545107     2B2     0.545107
       3B1     0.564030     3B2     0.564030     7A1     0.667427
       8A1     0.829096     4B1     1.056616     4B2     1.056616
       1A2     1.194259     9A1     1.194259    10A1     1.549406
       5B1     1.845465     5B2     1.845465    11A1     1.868334
      12A1     2.027991     2A2     2.027991     6B1     2.081238
       6B2     2.081238    13A1     2.169486     7B1     3.041183
       7B2     3.041183    14A1     3.361419     8B2     3.972358
       8B1     3.972358    15A1     3.993125     3A2     4.268475
      16A1     4.268475     9B1     4.463058     9B2     4.463058
      17A1     4.573051    18A1     4.676817     4A2     4.676817
      10B1     4.856222    10B2     4.856222    19A1     5.487164
      11B1     5.816857    11B2     5.816857    12B1     5.936120
      12B2     5.936120     5A2     6.168645    20A1     6.168646
      21A1     6.866861    13B2     7.939975    13B1     7.939975
      22A1     8.322092     6A2     8.426493    23A1     8.426493
      24A1     9.282437    14B2    10.044108    14B1    10.044108
      25A1    11.957490    26A1    31.127049

    Final Occupation by Irrep:
             A1    A2    B1    B2
    DOCC [     5,    0,    1,    1 ]
    SOCC [     0,    0,    1,    1 ]
    NA   [     5,    0,    2,    2 ]
    NB   [     5,    0,    1,    1 ]

  @DF-UKS Final Energy:  -124.97761829505683

   => Energetics <=

    Nuclear Repulsion Energy =             55.5468736246705674
    One-Electron Energy =                -278.1268539225105769
    Two-Electron Energy =                 111.3790743108009451
    DFT Exchange-Correlation Energy =     -13.7767123080177711
    Empirical Dispersion Energy =           0.0000000000000000
    VV10 Nonlocal Energy =                  0.0000000000000000
    Total Energy =                       -124.9776182950568284

  UHF NO Occupations:
  HONO-2 :    5 A1 1.9985625
  HONO-1 :    2 B2 1.0000000
  HONO-0 :    2 B1 1.0000000
  LUNO+0 :    6 A1 0.0014375
  LUNO+1 :    3 B1 0.0000427
  LUNO+2 :    3 B2 0.0000427
  LUNO+3 :    7 A1 0.0000368

Computation Completed

Properties will be evaluated at   0.000000,   0.000000,   0.000000 [a0]

Properties computed using the B3LYP density matrix

 Multipole Moments:

 ------------------------------------------------------------------------------------
     Multipole            Electronic (a.u.)      Nuclear  (a.u.)        Total (a.u.)
 ------------------------------------------------------------------------------------

 L = 1.  Multiply by 2.5417464519 to convert [e a0] to [Debye]
 Dipole X            :          0.0000000            0.0000000            0.0000000
 Dipole Y            :          0.0000000            0.0000000            0.0000000
 Dipole Z            :         -2.3167525           -0.0020228           -2.3187753
 Magnitude           :                                                    2.3187753

 L = 2.  Multiply by 1.3450342976 to convert [e a0^2] to [Debye ang]
 Quadrupole XX       :        -11.3325959            0.0000000          -11.3325959
 Quadrupole XY       :          0.0000000            0.0000000            0.0000000
 Quadrupole XZ       :          0.0000000            0.0000000            0.0000000
 Quadrupole YY       :        -11.3325959            0.0000000          -11.3325959
 Quadrupole YZ       :          0.0000000            0.0000000            0.0000000
 Quadrupole ZZ       :        -15.2739650            3.7944917          -11.4794732
 Traceless XX        :          1.3137897           -1.2648306            0.0489591
 Traceless YY        :          1.3137897           -1.2648306            0.0489591
 Traceless ZZ        :         -2.6275794            2.5296612           -0.0979182

 ------------------------------------------------------------------------------------
  ==> Computing MBIS Charges <==

  Electron Count from Grid (Expected Number): 16.00000 (16.00000)
  Difference:  0.00000

  MBIS Charges: (a.u.)
   Center  Symbol  Z      Pop.       Charge
      1       O    8    6.965642    1.034358
      2       N    7    9.034359   -2.034359

  MBIS Dipoles: [e a0]
   Center  Symbol  Z        X           Y           Z
      1       O    8   -0.000000   -0.000000   -0.083920
      2       N    7    0.000000    0.000000   -0.654510

  MBIS Quadrupoles: [e a0^2]
   Center  Symbol  Z      XX        XY        XZ        YY        YZ        ZZ
      1       O    8   -1.5913   -0.0000    0.0000   -1.5913   -0.0000   -1.9688
      2       N    7   -9.7413    0.0000    0.0000   -9.7413    0.0000   -8.5273

  MBIS Octupoles: [e a0^3]
   Center  Symbol  Z      XXX       XXY       XXZ       XYY       XYZ       XZZ       YYY       YYZ       YZZ       ZZZ
      1       O    8   -0.0000    0.0000   -0.0221   -0.0000   -0.0000   -0.0000   -0.0000   -0.0221    0.0000    0.1959
      2       N    7   -0.0000    0.0000   -3.6262    0.0000   -0.0000    0.0000    0.0000   -3.6262    0.0000   -1.3366

  MBIS Radial Moments:
   Center  Symbol  Z      [a0^2]      [a0^3]      [a0^4]
      1       O    8    5.151438    6.889948   11.155938
      2       N    7   28.009787   78.359945   250.341580

  MBIS Valence Widths: [a0]
   Center  Symbol  Z     Width
      1       O    8    0.278980
      2       N    7    0.571548

*** tstop() called on Mac.lan at Sun Aug 10 17:46:26 2025
Module time:
	user time   =       5.44 seconds =       0.09 minutes
	system time =       2.87 seconds =       0.05 minutes
	total time  =          0 seconds =       0.00 minutes
Total time:
	user time   =      20.52 seconds =       0.34 minutes
	system time =       5.29 seconds =       0.09 minutes
	total time  =          2 seconds =       0.03 minutes

    Psi4 stopped on: Sunday, 10 August 2025 05:46PM
    Psi4 wall time for execution: 0:00:02.49

*** Psi4 exiting successfully. Buy a developer a beer!
