                               Psi4 1.9.1 release

  ==> Input File <==

--------------------------------------------------------------------------
molecule {
-1 1
N           0.000000           0.000000           0.000000
C           0.000000           0.000000           1.618462
}

set {
basis              cc-pvtz
reference          uks
maxiter            500
DAMPING_PERCENTAGE 1
E_CONVERGENCE      1.0E-8
D_CONVERGENCE      1.0E-8
DIIS_MAX_VECS      400
MBIS_MAXITER       8000
guess              read
}

E, wfn = energy('b3lyp', restart_file='last_wfn', return_wfn=True)
properties('b3lyp','MBIS_CHARGES', wfn=wfn)
wfn.to_file('last_wfn')
--------------------------------------------------------------------------

    Molecular point group: c2v
  Charge       = -1
  Multiplicity = 1
  Basis Set: CC-PVTZ
    Blend: CC-PVTZ
  Basis Set: (CC-PVTZ AUX)
    Blend: CC-PVTZ-JKFIT
  @DF-UKS Final Energy:   -92.71301820671468
    Total Energy =                        -92.7130182067146791
 Dipole X            :          0.0000000            0.0000000            0.0000000
 Dipole Y            :          0.0000000            0.0000000            0.0000000
 Dipole Z            :         -0.0771585            0.0021694           -0.0749892
 Magnitude           :                                                    0.0749892
    Molecular point group: c2v

    Geometry (in Angstrom), charge = -1, multiplicity = 1:

       Center              X                  Y                   Z               Mass
    ------------   -----------------  -----------------  -----------------  -----------------
         N            0.000000000000     0.000000000000    -0.746894155541    14.003074004430
         C            0.000000000000     0.000000000000     0.871567844459    12.000000000000

  Charge       = -1
  Multiplicity = 1
  Basis Set: CC-PVTZ
    Blend: CC-PVTZ
  Basis Set: (CC-PVTZ AUX)
    Blend: CC-PVTZ-JKFIT

    Orbital Energies [Eh]
    ---------------------

    Alpha Occupied:

       1A1   -14.084117     2A1    -9.997967     3A1    -0.475048
       4A1    -0.213270     5A1    -0.021480     1B2     0.000138
       1B1     0.000138

    Alpha Virtual:

       2B1     0.195276     2B2     0.195276     6A1     0.367959
       3B2     0.560178     3B1     0.560178     7A1     0.561145
       8A1     0.602524     9A1     0.717180     4B2     0.766204
       4B1     0.766204     1A2     0.929247    10A1     0.929247
       5B1     1.008110     5B2     1.008110    11A1     1.143159
      12A1     1.329495    13A1     1.371799     2A2     1.371799
       6B1     1.643870     6B2     1.643870    14A1     1.834352
       7B1     2.262263     7B2     2.262263    15A1     2.505400
       8B2     2.926548     8B1     2.926548     9B2     2.956467
       9B1     2.956467     3A2     2.956489    16A1     2.956489
      17A1     3.027186    18A1     3.234125     4A2     3.234127
      10B2     3.250694    10B1     3.250694    19A1     3.453596
      11B1     3.460435    11B2     3.460435    20A1     3.581560
      12B1     4.190767    12B2     4.190767    21A1     4.296003
       5A2     4.296004    22A1     4.321444    13B2     4.629312
      13B1     4.629312     6A2     4.765818    23A1     4.765821
      24A1     4.974996    14B1     5.136577    14B2     5.136577
      25A1     5.840404    26A1     7.059372

    Beta Occupied:

       1A1   -14.084117     2A1    -9.997967     3A1    -0.475048
       4A1    -0.213270     5A1    -0.021480     1B2     0.000138
       1B1     0.000138

    Beta Virtual:

       2B1     0.195276     2B2     0.195276     6A1     0.367959
       3B2     0.560178     3B1     0.560178     7A1     0.561145
       8A1     0.602524     9A1     0.717180     4B2     0.766204
       4B1     0.766204     1A2     0.929247    10A1     0.929247
       5B1     1.008110     5B2     1.008110    11A1     1.143159
      12A1     1.329495    13A1     1.371799     2A2     1.371799
       6B1     1.643870     6B2     1.643870    14A1     1.834352
       7B1     2.262263     7B2     2.262263    15A1     2.505400
       8B2     2.926548     8B1     2.926548     9B2     2.956467
       9B1     2.956467     3A2     2.956489    16A1     2.956489
      17A1     3.027186    18A1     3.234125     4A2     3.234127
      10B2     3.250694    10B1     3.250694    19A1     3.453596
      11B1     3.460435    11B2     3.460435    20A1     3.581560
      12B1     4.190767    12B2     4.190767    21A1     4.296003
       5A2     4.296004    22A1     4.321444    13B2     4.629312
      13B1     4.629312     6A2     4.765818    23A1     4.765821
      24A1     4.974996    14B1     5.136577    14B2     5.136577
      25A1     5.840404    26A1     7.059372

    Final Occupation by Irrep:
             A1    A2    B1    B2
    DOCC [     5,    0,    1,    1 ]
    SOCC [     0,    0,    0,    0 ]
    NA   [     5,    0,    1,    1 ]
    NB   [     5,    0,    1,    1 ]

  @DF-UKS Final Energy:   -92.71301820664000

   => Energetics <=

    Nuclear Repulsion Energy =             13.7324465128869253
    One-Electron Energy =                -156.2024400426090835
    Two-Electron Energy =                  59.6142792384493987
    DFT Exchange-Correlation Energy =      -9.8573039153672397
    Empirical Dispersion Energy =           0.0000000000000000
    VV10 Nonlocal Energy =                  0.0000000000000000
    Total Energy =                        -92.7130182066400010

  UHF NO Occupations:
  HONO-2 :    3 A1 2.0000000
  HONO-1 :    4 A1 2.0000000
  HONO-0 :    5 A1 2.0000000
  LUNO+0 :    6 A1 0.0000000
  LUNO+1 :    7 A1 0.0000000
  LUNO+2 :    8 A1 0.0000000
  LUNO+3 :    9 A1 0.0000000

Computation Completed

Properties will be evaluated at   0.000000,   0.000000,   0.000000 [a0]

Properties computed using the B3LYP density matrix

 Multipole Moments:

 ------------------------------------------------------------------------------------
     Multipole            Electronic (a.u.)      Nuclear  (a.u.)        Total (a.u.)
 ------------------------------------------------------------------------------------

 L = 1.  Multiply by 2.5417464519 to convert [e a0] to [Debye]
 Dipole X            :          0.0000000            0.0000000            0.0000000
 Dipole Y            :          0.0000000            0.0000000            0.0000000
 Dipole Z            :         -0.0771585            0.0021694           -0.0749892
 Magnitude           :                                                    0.0749892

 L = 2.  Multiply by 1.3450342976 to convert [e a0^2] to [Debye ang]
 Quadrupole XX       :        -11.1063415            0.0000000          -11.1063415
 Quadrupole XY       :          0.0000000            0.0000000            0.0000000
 Quadrupole XZ       :          0.0000000            0.0000000            0.0000000
 Quadrupole YY       :        -11.1063415            0.0000000          -11.1063415
 Quadrupole YZ       :          0.0000000            0.0000000            0.0000000
 Quadrupole ZZ       :        -44.9645104           30.2209903          -14.7435201
 Traceless XX        :         11.2860563          -10.0736634            1.2123929
 Traceless YY        :         11.2860563          -10.0736634            1.2123929
 Traceless ZZ        :        -22.5721126           20.1473269           -2.4247857

 ------------------------------------------------------------------------------------
  ==> Computing MBIS Charges <==

  Electron Count from Grid (Expected Number): 14.00000 (14.00000)
  Difference: -0.00000

  MBIS Charges: (a.u.)
   Center  Symbol  Z      Pop.       Charge
      1       N    7    7.572161   -0.572161
      2       C    6    6.427839   -0.427839

  MBIS Dipoles: [e a0]
   Center  Symbol  Z        X           Y           Z
      1       N    7   -0.000000   -0.000000   -0.004101
      2       C    6   -0.000000    0.000000   -0.173791

  MBIS Quadrupoles: [e a0^2]
   Center  Symbol  Z      XX        XY        XZ        YY        YZ        ZZ
      1       N    7   -5.2947    0.0000    0.0000   -5.2947    0.0000   -5.4959
      2       C    6   -5.8116    0.0000    0.0000   -5.8116    0.0000   -6.3863

  MBIS Octupoles: [e a0^3]
   Center  Symbol  Z      XXX       XXY       XXZ       XYY       XYZ       XZZ       YYY       YYZ       YZZ       ZZZ
      1       N    7   -0.0000   -0.0000   -0.1912   -0.0000    0.0000   -0.0000   -0.0000   -0.1912   -0.0000   -0.3266
      2       C    6   -0.0000   -0.0000    0.0505   -0.0000   -0.0000   -0.0000    0.0000    0.0505    0.0000   -0.0855

  MBIS Radial Moments:
   Center  Symbol  Z      [a0^2]      [a0^3]      [a0^4]
      1       N    7   16.085407   37.230852   102.184631
      2       C    6   18.009491   48.591276   154.280287

  MBIS Valence Widths: [a0]
   Center  Symbol  Z     Width
      1       N    7    0.480145
      2       C    6    0.569477

*** tstop() called on Mac.lan at Sun Aug 10 17:41:06 2025
Module time:
	user time   =       3.98 seconds =       0.07 minutes
	system time =       1.44 seconds =       0.02 minutes
	total time  =          0 seconds =       0.00 minutes
Total time:
	user time   =      18.39 seconds =       0.31 minutes
	system time =       3.34 seconds =       0.06 minutes
	total time  =          2 seconds =       0.03 minutes

    Psi4 stopped on: Sunday, 10 August 2025 05:41PM
    Psi4 wall time for execution: 0:00:02.10

*** Psi4 exiting successfully. Buy a developer a beer!
