                               Psi4 1.9.1 release

  ==> Input File <==

--------------------------------------------------------------------------
molecule {
-1 2
O           0.000000           0.000000           0.000000
C           0.000000           0.000000           0.600046
}

set {
basis              cc-pvtz
reference          uks
maxiter            500
DAMPING_PERCENTAGE 1
E_CONVERGENCE      1.0E-8
D_CONVERGENCE      1.0E-8
DIIS_MAX_VECS      400
MBIS_MAXITER       8000
guess              read
}

E, wfn = energy('b3lyp', restart_file='last_wfn', return_wfn=True)
properties('b3lyp','MBIS_CHARGES', wfn=wfn)
wfn.to_file('last_wfn')
--------------------------------------------------------------------------

    Molecular point group: c2v
  Charge       = -1
  Multiplicity = 2
  Basis Set: CC-PVTZ
    Blend: CC-PVTZ
  Basis Set: (CC-PVTZ AUX)
    Blend: CC-PVTZ-JKFIT
  @DF-UKS Final Energy:  -110.38765547057631
    Total Energy =                       -110.3876554705763056
 Dipole X            :          0.0000000            0.0000000            0.0000000
 Dipole Y            :          0.0000000            0.0000000            0.0000000
 Dipole Z            :         -1.7415523           -0.0012359           -1.7427882
 Magnitude           :                                                    1.7427882
    Molecular point group: c2v

    Geometry (in Angstrom), charge = -1, multiplicity = 2:

       Center              X                  Y                   Z               Mass
    ------------   -----------------  -----------------  -----------------  -----------------
         O            0.000000000000     0.000000000000    -0.257209285967    15.994914619570
         C            0.000000000000     0.000000000000     0.342836714033    12.000000000000

  Charge       = -1
  Multiplicity = 2
  Basis Set: CC-PVTZ
    Blend: CC-PVTZ
  Basis Set: (CC-PVTZ AUX)
    Blend: CC-PVTZ-JKFIT

    Orbital Energies [Eh]
    ---------------------

    Alpha Occupied:

       1A1   -18.984467     2A1   -10.051507     3A1    -0.930313
       1B2    -0.530213     1B1    -0.528602     4A1    -0.248811
       5A1    -0.031615     2B1     0.305592

    Alpha Virtual:

       2B2     0.366299     6A1     0.378505     7A1     0.525612
       3B2     0.611285     3B1     0.620319     8A1     0.799839
       4B2     0.891616     4B1     0.892056     1A2     0.898449
       9A1     0.900915    10A1     1.154354     5B2     1.436597
       5B1     1.439635    11A1     1.655525     6B2     1.814361
       6B1     1.821506     2A2     1.930791    12A1     1.932222
      13A1     2.046558    14A1     2.602569     7B2     2.743625
       7B1     2.747965     8B1     2.922009     8B2     2.922070
       3A2     3.133313    15A1     3.133900    16A1     3.189282
       9B2     3.381316     9B1     3.387280    17A1     3.605968
       4A2     3.607044    18A1     3.626051    10B2     4.380343
      10B1     4.384882    11B2     4.823541    11B1     4.827716
      19A1     4.920897    12B1     5.670682    12B2     5.670692
      20A1     6.352814     5A2     6.420248    21A1     6.420650
      13B2     7.079994    13B1     7.083533     6A2     7.217188
      22A1     7.217336    23A1     7.327885    14B2     8.709727
      14B1     8.711252    24A1     8.872462    25A1    10.433925
      26A1    19.726849

    Beta Occupied:

       1A1   -18.981329     2A1   -10.052512     3A1    -0.925824
       1B2    -0.529071     1B1    -0.517695     4A1    -0.246442
       5A1    -0.024489

    Beta Virtual:

       2B2     0.379728     6A1     0.391213     2B1     0.405630
       7A1     0.542159     3B2     0.607915     3B1     0.619707
       8A1     0.807341     4B2     0.893426     4B1     0.909341
       1A2     0.915849     9A1     0.916755    10A1     1.160259
       5B2     1.437493     5B1     1.456204    11A1     1.657521
       6B2     1.813414     6B1     1.828012    12A1     1.940963
       2A2     1.941044    13A1     2.050187    14A1     2.606001
       7B2     2.742973     7B1     2.751912     8B2     2.925442
       8B1     2.925454    15A1     3.135398     3A2     3.136105
      16A1     3.189845     9B2     3.378719     9B1     3.392108
      17A1     3.606257     4A2     3.608859    18A1     3.626746
      10B2     4.381119    10B1     4.394110    11B2     4.823134
      11B1     4.833842    19A1     4.923951    12B2     5.674589
      12B1     5.674591    20A1     6.353993     5A2     6.428239
      21A1     6.428461    13B2     7.080310    13B1     7.088347
      22A1     7.221041     6A2     7.221152    23A1     7.329848
      14B2     8.710459    14B1     8.717764    24A1     8.873518
      25A1    10.437629    26A1    19.729836

    Final Occupation by Irrep:
             A1    A2    B1    B2
    DOCC [     5,    0,    1,    1 ]
    SOCC [     0,    0,    1,    0 ]
    NA   [     5,    0,    2,    1 ]
    NB   [     5,    0,    1,    1 ]

  @DF-UKS Final Energy:  -110.38765547057980

   => Energetics <=

    Nuclear Repulsion Energy =             42.3309314821863651
    One-Electron Energy =                -234.3410297200381081
    Two-Electron Energy =                  93.9238791382258142
    DFT Exchange-Correlation Energy =     -12.3014363709538816
    Empirical Dispersion Energy =           0.0000000000000000
    VV10 Nonlocal Energy =                  0.0000000000000000
    Total Energy =                       -110.3876554705798014

  UHF NO Occupations:
  HONO-2 :    1 B1 1.9999767
  HONO-1 :    5 A1 1.9992499
  HONO-0 :    2 B1 1.0000000
  LUNO+0 :    6 A1 0.0007501
  LUNO+1 :    3 B1 0.0000233
  LUNO+2 :    7 A1 0.0000074
  LUNO+3 :    2 B2 0.0000022

Computation Completed

Properties will be evaluated at   0.000000,   0.000000,   0.000000 [a0]

Properties computed using the B3LYP density matrix

 Multipole Moments:

 ------------------------------------------------------------------------------------
     Multipole            Electronic (a.u.)      Nuclear  (a.u.)        Total (a.u.)
 ------------------------------------------------------------------------------------

 L = 1.  Multiply by 2.5417464519 to convert [e a0] to [Debye]
 Dipole X            :          0.0000000            0.0000000            0.0000000
 Dipole Y            :          0.0000000            0.0000000            0.0000000
 Dipole Z            :         -1.7415523           -0.0012359           -1.7427882
 Magnitude           :                                                    1.7427882

 L = 2.  Multiply by 1.3450342976 to convert [e a0^2] to [Debye ang]
 Quadrupole XX       :        -14.4678969            0.0000000          -14.4678969
 Quadrupole XY       :          0.0000000            0.0000000            0.0000000
 Quadrupole XZ       :          0.0000000            0.0000000            0.0000000
 Quadrupole YY       :         -9.1840905            0.0000000           -9.1840905
 Quadrupole YZ       :          0.0000000            0.0000000            0.0000000
 Quadrupole ZZ       :        -16.6721505            4.4083903          -12.2637602
 Traceless XX        :         -1.0265176           -1.4694634           -2.4959810
 Traceless YY        :          4.2572888           -1.4694634            2.7878254
 Traceless ZZ        :         -3.2307712            2.9389269           -0.2918444

 ------------------------------------------------------------------------------------
  ==> Computing MBIS Charges <==

  Electron Count from Grid (Expected Number): 15.00000 (15.00000)
  Difference: -0.00000

  MBIS Charges: (a.u.)
   Center  Symbol  Z      Pop.       Charge
      1       O    8    7.613750    0.386250
      2       C    6    7.386248   -1.386248

  MBIS Dipoles: [e a0]
   Center  Symbol  Z        X           Y           Z
      1       O    8    0.000000    0.000000   -0.136531
      2       C    6    0.000000    0.000000   -0.520414

  MBIS Quadrupoles: [e a0^2]
   Center  Symbol  Z      XX        XY        XZ        YY        YZ        ZZ
      1       O    8   -2.2375    0.0000    0.0000   -2.1500    0.0000   -2.6102
      2       C    6   -12.2304   -0.0000    0.0000   -7.0341    0.0000   -8.6214

  MBIS Octupoles: [e a0^3]
   Center  Symbol  Z      XXX       XXY       XXZ       XYY       XYZ       XZZ       YYY       YYZ       YZZ       ZZZ
      1       O    8    0.0000   -0.0000   -0.0627   -0.0000   -0.0000   -0.0000   -0.0000   -0.0169    0.0000    0.1727
      2       C    6    0.0000    0.0000   -3.8763    0.0000    0.0000    0.0000    0.0000   -1.5072    0.0000   -2.3037

  MBIS Radial Moments:
   Center  Symbol  Z      [a0^2]      [a0^3]      [a0^4]
      1       O    8    6.997705   10.392717   18.664115
      2       C    6   27.885845   89.872568   334.997572

  MBIS Valence Widths: [a0]
   Center  Symbol  Z     Width
      1       O    8    0.309894
      2       C    6    0.645943

*** tstop() called on Mac.lan at Sun Aug 10 17:42:32 2025
Module time:
	user time   =       4.02 seconds =       0.07 minutes
	system time =       2.47 seconds =       0.04 minutes
	total time  =          1 seconds =       0.02 minutes
Total time:
	user time   =      18.73 seconds =       0.31 minutes
	system time =       4.60 seconds =       0.08 minutes
	total time  =          3 seconds =       0.05 minutes

    Psi4 stopped on: Sunday, 10 August 2025 05:42PM
    Psi4 wall time for execution: 0:00:02.25

*** Psi4 exiting successfully. Buy a developer a beer!
