                               Psi4 1.9.1 release

  ==> Input File <==

--------------------------------------------------------------------------
molecule {
-1 3
O           0.000000           0.000000           0.000000
N           0.000000           0.000000           0.980230
}

set {
basis              cc-pvtz
reference          uks
maxiter            500
DAMPING_PERCENTAGE 1
E_CONVERGENCE      1.0E-8
D_CONVERGENCE      1.0E-8
DIIS_MAX_VECS      400
MBIS_MAXITER       8000
guess              read
}

E, wfn = energy('b3lyp', restart_file='last_wfn', return_wfn=True)
properties('b3lyp','MBIS_CHARGES', wfn=wfn)
wfn.to_file('last_wfn')
--------------------------------------------------------------------------

    Molecular point group: c2v
  Charge       = -1
  Multiplicity = 3
  Basis Set: CC-PVTZ
    Blend: CC-PVTZ
  Basis Set: (CC-PVTZ AUX)
    Blend: CC-PVTZ-JKFIT
  @DF-UKS Final Energy:  -129.75209423978527
    Total Energy =                       -129.7520942397852650
 Dipole X            :          0.0000000            0.0000000            0.0000000
 Dipole Y            :          0.0000000            0.0000000            0.0000000
 Dipole Z            :         -0.6334643           -0.0037167           -0.6371810
 Magnitude           :                                                    0.6371810
    Molecular point group: c2v

    Geometry (in Angstrom), charge = -1, multiplicity = 3:

       Center              X                  Y                   Z               Mass
    ------------   -----------------  -----------------  -----------------  -----------------
         O            0.000000000000     0.000000000000    -0.457571786009    15.994914619570
         N            0.000000000000     0.000000000000     0.522658213991    14.003074004430

  Charge       = -1
  Multiplicity = 3
  Basis Set: CC-PVTZ
    Blend: CC-PVTZ
  Basis Set: (CC-PVTZ AUX)
    Blend: CC-PVTZ-JKFIT

    Orbital Energies [Eh]
    ---------------------

    Alpha Occupied:

       1A1   -18.823943     2A1   -13.969745     3A1    -0.981727
       4A1    -0.291091     1B2    -0.223103     1B1    -0.223103
       5A1    -0.116891     2B1     0.239566     2B2     0.239566

    Alpha Virtual:

       6A1     0.520967     3B2     0.704615     3B1     0.704615
       7A1     0.732092     8A1     0.840287     4B2     0.901647
       4B1     0.901647     9A1     1.242786    10A1     1.266823
       1A2     1.266824    11A1     1.507932     5B1     1.588432
       5B2     1.588432     2A2     1.926535    12A1     1.926536
      13A1     2.201254     6B1     2.406775     6B2     2.406775
      14A1     2.689157     7B1     3.180353     7B2     3.180353
      15A1     3.533695    16A1     4.066345     8B2     4.084191
       8B1     4.084191     9B2     4.138674     9B1     4.138674
       3A2     4.224327    17A1     4.224327    10B2     4.517670
      10B1     4.517670    18A1     4.767051     4A2     4.767052
      19A1     4.970556    11B1     5.185071    11B2     5.185071
      12B2     5.475990    12B1     5.475990    20A1     5.746228
      21A1     6.307944     5A2     6.307944     6A2     6.542453
      22A1     6.542459    13B1     6.942148    13B2     6.942148
      23A1     7.060941    24A1     7.559447    14B1     7.982532
      14B2     7.982532    25A1     8.507915    26A1    18.763333

    Beta Occupied:

       1A1   -18.803868     2A1   -13.947351     3A1    -0.949328
       4A1    -0.233929     1B1    -0.153758     1B2    -0.153758
       5A1    -0.063052

    Beta Virtual:

       2B1     0.394710     2B2     0.394710     6A1     0.531227
       3B2     0.741366     3B1     0.741366     7A1     0.754129
       8A1     0.864788     4B2     0.947653     4B1     0.947653
       9A1     1.282044     1A2     1.310838    10A1     1.310838
      11A1     1.526694     5B1     1.624457     5B2     1.624457
       2A2     1.976517    12A1     1.976517    13A1     2.226281
       6B1     2.440215     6B2     2.440215    14A1     2.718322
       7B1     3.243353     7B2     3.243353    15A1     3.562153
      16A1     4.095972     8B2     4.136421     8B1     4.136421
       9B2     4.205036     9B1     4.205036    17A1     4.258680
       3A2     4.258680    10B2     4.555642    10B1     4.555642
      18A1     4.860612     4A2     4.860613    19A1     5.001412
      11B1     5.219980    11B2     5.219980    12B2     5.525801
      12B1     5.525801    20A1     5.775432     5A2     6.349834
      21A1     6.349834     6A2     6.611720    22A1     6.611726
      13B1     6.979014    13B2     6.979014    23A1     7.080299
      24A1     7.586084    14B1     8.019577    14B2     8.019577
      25A1     8.541489    26A1    18.794086

    Final Occupation by Irrep:
             A1    A2    B1    B2
    DOCC [     5,    0,    1,    1 ]
    SOCC [     0,    0,    1,    1 ]
    NA   [     5,    0,    2,    2 ]
    NB   [     5,    0,    1,    1 ]

  @DF-UKS Final Energy:  -129.75209424583139

   => Energetics <=

    Nuclear Repulsion Energy =             30.2316025805372313
    One-Electron Energy =                -242.2464077301943064
    Two-Electron Energy =                  95.1693769549662534
    DFT Exchange-Correlation Energy =     -12.9066660511405633
    Empirical Dispersion Energy =           0.0000000000000000
    VV10 Nonlocal Energy =                  0.0000000000000000
    Total Energy =                       -129.7520942458313868

  UHF NO Occupations:
  HONO-2 :    5 A1 1.9993751
  HONO-1 :    2 B2 1.0000000
  HONO-0 :    2 B1 1.0000000
  LUNO+0 :    6 A1 0.0006249
  LUNO+1 :    3 B2 0.0005923
  LUNO+2 :    3 B1 0.0005923
  LUNO+3 :    7 A1 0.0001744

Computation Completed

Properties will be evaluated at   0.000000,   0.000000,   0.000000 [a0]

Properties computed using the B3LYP density matrix

 Multipole Moments:

 ------------------------------------------------------------------------------------
     Multipole            Electronic (a.u.)      Nuclear  (a.u.)        Total (a.u.)
 ------------------------------------------------------------------------------------

 L = 1.  Multiply by 2.5417464519 to convert [e a0] to [Debye]
 Dipole X            :          0.0000000            0.0000000            0.0000000
 Dipole Y            :          0.0000000            0.0000000            0.0000000
 Dipole Z            :         -0.6334643           -0.0037167           -0.6371810
 Magnitude           :                                                    0.6371810

 L = 2.  Multiply by 1.3450342976 to convert [e a0^2] to [Debye ang]
 Quadrupole XX       :         -9.3644596            0.0000000           -9.3644596
 Quadrupole XY       :          0.0000000            0.0000000            0.0000000
 Quadrupole XZ       :          0.0000000            0.0000000            0.0000000
 Quadrupole YY       :         -9.3644596            0.0000000           -9.3644596
 Quadrupole YZ       :          0.0000000            0.0000000            0.0000000
 Quadrupole ZZ       :        -24.8501652           12.8100408          -12.0401243
 Traceless XX        :          5.1619019           -4.2700136            0.8918883
 Traceless YY        :          5.1619019           -4.2700136            0.8918883
 Traceless ZZ        :        -10.3238037            8.5400272           -1.7837765

 ------------------------------------------------------------------------------------
  ==> Computing MBIS Charges <==

  Electron Count from Grid (Expected Number): 16.00000 (16.00000)
  Difference: -0.00000

  MBIS Charges: (a.u.)
   Center  Symbol  Z      Pop.       Charge
      1       O    8    8.237253   -0.237253
      2       N    7    7.762747   -0.762747

  MBIS Dipoles: [e a0]
   Center  Symbol  Z        X           Y           Z
      1       O    8    0.000000   -0.000000    0.253391
      2       N    7   -0.000000   -0.000000   -0.342371

  MBIS Quadrupoles: [e a0^2]
   Center  Symbol  Z      XX        XY        XZ        YY        YZ        ZZ
      1       O    8   -3.8129   -0.0000   -0.0000   -3.8129   -0.0000   -4.2219
      2       N    7   -5.5516   -0.0000    0.0000   -5.5516    0.0000   -5.7822

  MBIS Octupoles: [e a0^3]
   Center  Symbol  Z      XXX       XXY       XXZ       XYY       XYZ       XZZ       YYY       YYZ       YZZ       ZZZ
      1       O    8    0.0000   -0.0000    0.3734    0.0000    0.0000    0.0000   -0.0000    0.3734    0.0000    0.4793
      2       N    7    0.0000   -0.0000   -0.8174   -0.0000    0.0000    0.0000   -0.0000   -0.8174   -0.0000    0.0723

  MBIS Radial Moments:
   Center  Symbol  Z      [a0^2]      [a0^3]      [a0^4]
      1       O    8   11.847640   22.690227   52.308164
      2       N    7   16.885431   39.912066   111.685107

  MBIS Valence Widths: [a0]
   Center  Symbol  Z     Width
      1       O    8    0.386572
      2       N    7    0.482153

*** tstop() called on Mac.lan at Sun Aug 10 17:45:05 2025
Module time:
	user time   =      24.56 seconds =       0.41 minutes
	system time =       3.15 seconds =       0.05 minutes
	total time  =          2 seconds =       0.03 minutes
Total time:
	user time   =     136.78 seconds =       2.28 minutes
	system time =       9.63 seconds =       0.16 minutes
	total time  =         14 seconds =       0.23 minutes

    Psi4 stopped on: Sunday, 10 August 2025 05:45PM
    Psi4 wall time for execution: 0:00:14.78

*** Psi4 exiting successfully. Buy a developer a beer!
