                               Psi4 1.9.1 release

  ==> Input File <==

--------------------------------------------------------------------------
molecule {
-1 1
O           0.000000           0.000000           0.000000
H           0.000000           0.000000           1.297061
}

set {
basis              cc-pvtz
reference          uks
maxiter            500
DAMPING_PERCENTAGE 1
E_CONVERGENCE      1.0E-8
D_CONVERGENCE      1.0E-8
DIIS_MAX_VECS      400
MBIS_MAXITER       8000
guess              read
}

E, wfn = energy('b3lyp', restart_file='last_wfn', return_wfn=True)
properties('b3lyp','MBIS_CHARGES', wfn=wfn)
wfn.to_file('last_wfn')
--------------------------------------------------------------------------

    Molecular point group: c2v
  Charge       = -1
  Multiplicity = 1
  Basis Set: CC-PVTZ
    Blend: CC-PVTZ
  Basis Set: (CC-PVTZ AUX)
    Blend: CC-PVTZ-JKFIT
  @DF-UKS Final Energy:   -75.74767592750031
    Total Energy =                        -75.7476759275003104
 Dipole X            :          0.0000000            0.0000000            0.0000000
 Dipole Y            :          0.0000000            0.0000000            0.0000000
 Dipole Z            :         -1.1093155            1.1435108            0.0341953
 Magnitude           :                                                    0.0341953
    Molecular point group: c2v

    Geometry (in Angstrom), charge = -1, multiplicity = 1:

       Center              X                  Y                   Z               Mass
    ------------   -----------------  -----------------  -----------------  -----------------
         O            0.000000000000     0.000000000000    -0.076882347839    15.994914619570
         H            0.000000000000     0.000000000000     1.220178652161     1.007825032230

  Charge       = -1
  Multiplicity = 1
  Basis Set: CC-PVTZ
    Blend: CC-PVTZ
  Basis Set: (CC-PVTZ AUX)
    Blend: CC-PVTZ-JKFIT

    Orbital Energies [Eh]
    ---------------------

    Alpha Occupied:

       1A1   -18.728021     2A1    -0.491937     3A1    -0.021953
       1B1     0.096933     1B2     0.096933

    Alpha Virtual:

       4A1     0.271781     5A1     0.565932     2B1     0.888131
       2B2     0.888131     6A1     0.890660     3B1     1.018934
       3B2     1.018934     7A1     1.233402     8A1     1.410005
       1A2     1.872340     9A1     1.872340     4B2     1.999163
       4B1     1.999163    10A1     2.427262    11A1     2.675838
       2A2     3.512643    12A1     3.512645    13A1     3.623682
       5B1     3.628035     5B2     3.628035     6B1     4.000166
       6B2     4.000166     7B1     4.145316     7B2     4.145316
      14A1     4.201891    15A1     5.128072     8B2     5.564267
       8B1     5.564267    16A1     5.581682     3A2     5.581682
       9B1     5.952024     9B2     5.952024    17A1     6.359322
      18A1     6.629995     4A2     6.629998    10B2     6.843585
      10B1     6.843585    19A1     7.350405    20A1     8.301015

    Beta Occupied:

       1A1   -18.728021     2A1    -0.491937     3A1    -0.021953
       1B1     0.096933     1B2     0.096933

    Beta Virtual:

       4A1     0.271781     5A1     0.565932     2B1     0.888131
       2B2     0.888131     6A1     0.890660     3B1     1.018934
       3B2     1.018934     7A1     1.233402     8A1     1.410005
       1A2     1.872340     9A1     1.872340     4B2     1.999163
       4B1     1.999163    10A1     2.427262    11A1     2.675838
       2A2     3.512643    12A1     3.512645    13A1     3.623682
       5B1     3.628035     5B2     3.628035     6B1     4.000166
       6B2     4.000166     7B1     4.145316     7B2     4.145316
      14A1     4.201891    15A1     5.128072     8B2     5.564267
       8B1     5.564267    16A1     5.581682     3A2     5.581682
       9B1     5.952024     9B2     5.952024    17A1     6.359322
      18A1     6.629995     4A2     6.629998    10B2     6.843585
      10B1     6.843585    19A1     7.350405    20A1     8.301015

    Final Occupation by Irrep:
             A1    A2    B1    B2
    DOCC [     3,    0,    1,    1 ]
    SOCC [     0,    0,    0,    0 ]
    NA   [     3,    0,    1,    1 ]
    NB   [     3,    0,    1,    1 ]

  @DF-UKS Final Energy:   -75.74767592762237

   => Energetics <=

    Nuclear Repulsion Energy =              3.2638539631983385
    One-Electron Energy =                -114.6342552739796758
    Two-Electron Energy =                  42.9857385760578268
    DFT Exchange-Correlation Energy =      -7.3630131928988618
    Empirical Dispersion Energy =           0.0000000000000000
    VV10 Nonlocal Energy =                  0.0000000000000000
    Total Energy =                        -75.7476759276223675

  UHF NO Occupations:
  HONO-2 :    1 B2 2.0000000
  HONO-1 :    2 A1 2.0000000
  HONO-0 :    3 A1 2.0000000
  LUNO+0 :    4 A1 0.0000000
  LUNO+1 :    5 A1 0.0000000
  LUNO+2 :    2 B1 0.0000000
  LUNO+3 :    6 A1 0.0000000

Computation Completed

Properties will be evaluated at   0.000000,   0.000000,   0.000000 [a0]

Properties computed using the B3LYP density matrix

 Multipole Moments:

 ------------------------------------------------------------------------------------
     Multipole            Electronic (a.u.)      Nuclear  (a.u.)        Total (a.u.)
 ------------------------------------------------------------------------------------

 L = 1.  Multiply by 2.5417464519 to convert [e a0] to [Debye]
 Dipole X            :          0.0000000            0.0000000            0.0000000
 Dipole Y            :          0.0000000            0.0000000            0.0000000
 Dipole Z            :         -1.1093155            1.1435108            0.0341953
 Magnitude           :                                                    0.0341953

 L = 2.  Multiply by 1.3450342976 to convert [e a0^2] to [Debye ang]
 Quadrupole XX       :         -6.6388343            0.0000000           -6.6388343
 Quadrupole XY       :          0.0000000            0.0000000            0.0000000
 Quadrupole XZ       :          0.0000000            0.0000000            0.0000000
 Quadrupole YY       :         -6.6388343            0.0000000           -6.6388343
 Quadrupole YZ       :          0.0000000            0.0000000            0.0000000
 Quadrupole ZZ       :        -11.4578471            5.4855952           -5.9722519
 Traceless XX        :          1.6063376           -1.8285317           -0.2221941
 Traceless YY        :          1.6063376           -1.8285317           -0.2221941
 Traceless ZZ        :         -3.2126752            3.6570635            0.4443882

 ------------------------------------------------------------------------------------
  ==> Computing MBIS Charges <==

  Electron Count from Grid (Expected Number): 10.00000 (10.00000)
  Difference:  0.00000

  MBIS Charges: (a.u.)
   Center  Symbol  Z      Pop.       Charge
      1       O    8    8.988658   -0.988658
      2       H    1    1.011342   -0.011342

  MBIS Dipoles: [e a0]
   Center  Symbol  Z        X           Y           Z
      1       O    8   -0.000000   -0.000000   -0.100376
      2       H    1    0.000000    0.000000    0.017085

  MBIS Quadrupoles: [e a0^2]
   Center  Symbol  Z      XX        XY        XZ        YY        YZ        ZZ
      1       O    8   -5.5830    0.0000    0.0000   -5.5830   -0.0000   -4.9698
      2       H    1   -1.0558    0.0000    0.0000   -1.0558    0.0000   -1.0292

  MBIS Octupoles: [e a0^3]
   Center  Symbol  Z      XXX       XXY       XXZ       XYY       XYZ       XZZ       YYY       YYZ       YZZ       ZZZ
      1       O    8   -0.0000   -0.0000   -0.2000   -0.0000   -0.0000    0.0000   -0.0000   -0.2000    0.0000   -0.9752
      2       H    1    0.0000    0.0000    0.0069    0.0000   -0.0000   -0.0000    0.0000    0.0069    0.0000    0.0053

  MBIS Radial Moments:
   Center  Symbol  Z      [a0^2]      [a0^3]      [a0^4]
      1       O    8   16.135855   34.009970   85.066126
      2       H    1    3.140850    7.935819   23.631469

  MBIS Valence Widths: [a0]
   Center  Symbol  Z     Width
      1       O    8    0.430131
      2       H    1    0.507678

*** tstop() called on Mac.lan at Sun Aug 10 17:38:26 2025
Module time:
	user time   =       3.19 seconds =       0.05 minutes
	system time =       1.61 seconds =       0.03 minutes
	total time  =          0 seconds =       0.00 minutes
Total time:
	user time   =      13.56 seconds =       0.23 minutes
	system time =       3.84 seconds =       0.06 minutes
	total time  =          1 seconds =       0.02 minutes

    Psi4 stopped on: Sunday, 10 August 2025 05:38PM
    Psi4 wall time for execution: 0:00:01.70

*** Psi4 exiting successfully. Buy a developer a beer!
