                               Psi4 1.9.1 release

  ==> Input File <==

--------------------------------------------------------------------------
molecule {
-1 1
O           0.000000           0.000000           0.000000
H           0.000000           0.000000           1.456592
}

set {
basis              cc-pvtz
reference          uks
maxiter            500
DAMPING_PERCENTAGE 1
E_CONVERGENCE      1.0E-8
D_CONVERGENCE      1.0E-8
DIIS_MAX_VECS      400
MBIS_MAXITER       8000
guess              read
}

E, wfn = energy('b3lyp', restart_file='last_wfn', return_wfn=True)
properties('b3lyp','MBIS_CHARGES', wfn=wfn)
wfn.to_file('last_wfn')
--------------------------------------------------------------------------

    Molecular point group: c2v
  Charge       = -1
  Multiplicity = 1
  Basis Set: CC-PVTZ
    Blend: CC-PVTZ
  Basis Set: (CC-PVTZ AUX)
    Blend: CC-PVTZ-JKFIT
  @DF-UKS Final Energy:   -75.71981028815047
    Total Energy =                        -75.7198102881504695
 Dipole X            :          0.0000000            0.0000000            0.0000000
 Dipole Y            :          0.0000000            0.0000000            0.0000000
 Dipole Z            :         -1.4722707            1.2841560           -0.1881147
 Magnitude           :                                                    0.1881147
    Molecular point group: c2v

    Geometry (in Angstrom), charge = -1, multiplicity = 1:

       Center              X                  Y                   Z               Mass
    ------------   -----------------  -----------------  -----------------  -----------------
         O            0.000000000000     0.000000000000    -0.086338431889    15.994914619570
         H            0.000000000000     0.000000000000     1.370253568111     1.007825032230

  Charge       = -1
  Multiplicity = 1
  Basis Set: CC-PVTZ
    Blend: CC-PVTZ
  Basis Set: (CC-PVTZ AUX)
    Blend: CC-PVTZ-JKFIT

    Orbital Energies [Eh]
    ---------------------

    Alpha Occupied:

       1A1   -18.752469     2A1    -0.496608     3A1    -0.019920
       1B1     0.083301     1B2     0.083301

    Alpha Virtual:

       4A1     0.241036     5A1     0.530138     2B1     0.862017
       2B2     0.862017     6A1     0.901683     3B2     1.009018
       3B1     1.009018     7A1     1.141622     8A1     1.398272
       9A1     1.863758     1A2     1.863758     4B2     1.928423
       4B1     1.928423    10A1     2.295908    11A1     2.705519
      12A1     3.495777     2A2     3.500206    13A1     3.500210
       5B2     3.595964     5B1     3.595964     6B2     3.964833
       6B1     3.964833     7B2     4.039533     7B1     4.039533
      14A1     4.143830    15A1     4.904572     3A2     5.535302
      16A1     5.535302     8B1     5.549677     8B2     5.549677
       9B1     5.716532     9B2     5.716532    17A1     6.076467
       4A2     6.605975    18A1     6.605977    10B2     6.743552
      10B1     6.743552    19A1     7.309841    20A1     7.898045

    Beta Occupied:

       1A1   -18.752469     2A1    -0.496608     3A1    -0.019920
       1B2     0.083301     1B1     0.083301

    Beta Virtual:

       4A1     0.241036     5A1     0.530138     2B1     0.862017
       2B2     0.862017     6A1     0.901683     3B2     1.009018
       3B1     1.009018     7A1     1.141622     8A1     1.398272
       9A1     1.863758     1A2     1.863758     4B1     1.928423
       4B2     1.928423    10A1     2.295908    11A1     2.705519
      12A1     3.495777     2A2     3.500206    13A1     3.500210
       5B2     3.595964     5B1     3.595964     6B2     3.964833
       6B1     3.964833     7B1     4.039533     7B2     4.039533
      14A1     4.143830    15A1     4.904572     3A2     5.535302
      16A1     5.535302     8B1     5.549677     8B2     5.549677
       9B1     5.716532     9B2     5.716532    17A1     6.076467
       4A2     6.605975    18A1     6.605977    10B2     6.743552
      10B1     6.743552    19A1     7.309841    20A1     7.898045

    Final Occupation by Irrep:
             A1    A2    B1    B2
    DOCC [     3,    0,    1,    1 ]
    SOCC [     0,    0,    0,    0 ]
    NA   [     3,    0,    1,    1 ]
    NB   [     3,    0,    1,    1 ]

  @DF-UKS Final Energy:   -75.71981028829222

   => Energetics <=

    Nuclear Repulsion Energy =              2.9063853744631301
    One-Electron Energy =                -113.7755232344311480
    Two-Electron Energy =                  42.4813280059401421
    DFT Exchange-Correlation Energy =      -7.3320004342643497
    Empirical Dispersion Energy =           0.0000000000000000
    VV10 Nonlocal Energy =                  0.0000000000000000
    Total Energy =                        -75.7198102882922228

  UHF NO Occupations:
  HONO-2 :    2 A1 2.0000000
  HONO-1 :    1 B1 2.0000000
  HONO-0 :    3 A1 2.0000000
  LUNO+0 :    4 A1 0.0000000
  LUNO+1 :    5 A1 0.0000000
  LUNO+2 :    6 A1 0.0000000
  LUNO+3 :    7 A1 0.0000000

Computation Completed

Properties will be evaluated at   0.000000,   0.000000,   0.000000 [a0]

Properties computed using the B3LYP density matrix

 Multipole Moments:

 ------------------------------------------------------------------------------------
     Multipole            Electronic (a.u.)      Nuclear  (a.u.)        Total (a.u.)
 ------------------------------------------------------------------------------------

 L = 1.  Multiply by 2.5417464519 to convert [e a0] to [Debye]
 Dipole X            :          0.0000000            0.0000000            0.0000000
 Dipole Y            :          0.0000000            0.0000000            0.0000000
 Dipole Z            :         -1.4722707            1.2841560           -0.1881147
 Magnitude           :                                                    0.1881147

 L = 2.  Multiply by 1.3450342976 to convert [e a0^2] to [Debye ang]
 Quadrupole XX       :         -6.7713421            0.0000000           -6.7713421
 Quadrupole XY       :          0.0000000            0.0000000            0.0000000
 Quadrupole XZ       :          0.0000000            0.0000000            0.0000000
 Quadrupole YY       :         -6.7713421            0.0000000           -6.7713421
 Quadrupole YZ       :          0.0000000            0.0000000            0.0000000
 Quadrupole ZZ       :        -13.5053804            6.9179719           -6.5874084
 Traceless XX        :          2.2446794           -2.3059906           -0.0613112
 Traceless YY        :          2.2446794           -2.3059906           -0.0613112
 Traceless ZZ        :         -4.4893588            4.6119813            0.1226225

 ------------------------------------------------------------------------------------
  ==> Computing MBIS Charges <==

  Electron Count from Grid (Expected Number): 10.00000 (10.00000)
  Difference: -0.00000

  MBIS Charges: (a.u.)
   Center  Symbol  Z      Pop.       Charge
      1       O    8    8.899256   -0.899256
      2       H    1    1.100744   -0.100744

  MBIS Dipoles: [e a0]
   Center  Symbol  Z        X           Y           Z
      1       O    8    0.000000    0.000000   -0.094109
      2       H    1    0.000000   -0.000000    0.020143

  MBIS Quadrupoles: [e a0^2]
   Center  Symbol  Z      XX        XY        XZ        YY        YZ        ZZ
      1       O    8   -5.5048    0.0000    0.0000   -5.5048   -0.0000   -4.7915
      2       H    1   -1.2665    0.0000    0.0000   -1.2665    0.0000   -1.2315

  MBIS Octupoles: [e a0^3]
   Center  Symbol  Z      XXX       XXY       XXZ       XYY       XYZ       XZZ       YYY       YYZ       YZZ       ZZZ
      1       O    8   -0.0000   -0.0000   -0.2045   -0.0000    0.0000    0.0000   -0.0000   -0.2045   -0.0000   -0.9847
      2       H    1    0.0000    0.0000    0.0208    0.0000    0.0000   -0.0000    0.0000    0.0208    0.0000    0.0242

  MBIS Radial Moments:
   Center  Symbol  Z      [a0^2]      [a0^3]      [a0^4]
      1       O    8   15.801130   33.200505   82.828055
      2       H    1    3.764560    9.940518   30.813003

  MBIS Valence Widths: [a0]
   Center  Symbol  Z     Width
      1       O    8    0.428075
      2       H    1    0.533267

*** tstop() called on Mac.lan at Sun Aug 10 17:38:41 2025
Module time:
	user time   =       2.89 seconds =       0.05 minutes
	system time =       1.69 seconds =       0.03 minutes
	total time  =          0 seconds =       0.00 minutes
Total time:
	user time   =      13.40 seconds =       0.22 minutes
	system time =       3.88 seconds =       0.06 minutes
	total time  =          1 seconds =       0.02 minutes

    Psi4 stopped on: Sunday, 10 August 2025 05:38PM
    Psi4 wall time for execution: 0:00:01.68

*** Psi4 exiting successfully. Buy a developer a beer!
