                               Psi4 1.9.1 release

  ==> Input File <==

--------------------------------------------------------------------------
molecule {
-1 3
O           0.000000           0.000000           0.000000
N           0.000000           0.000000           0.771753
}

set {
basis              cc-pvtz
reference          uks
maxiter            500
DAMPING_PERCENTAGE 1
E_CONVERGENCE      1.0E-8
D_CONVERGENCE      1.0E-8
DIIS_MAX_VECS      400
MBIS_MAXITER       8000
guess              read
}

E, wfn = energy('b3lyp', restart_file='last_wfn', return_wfn=True)
properties('b3lyp','MBIS_CHARGES', wfn=wfn)
wfn.to_file('last_wfn')
--------------------------------------------------------------------------

    Molecular point group: c2v
  Charge       = -1
  Multiplicity = 3
  Basis Set: CC-PVTZ
    Blend: CC-PVTZ
  Basis Set: (CC-PVTZ AUX)
    Blend: CC-PVTZ-JKFIT
  @DF-UKS Final Energy:  -128.95036537928894
    Total Energy =                       -128.9503653792889395
 Dipole X            :          0.0000000            0.0000000            0.0000000
 Dipole Y            :          0.0000000            0.0000000            0.0000000
 Dipole Z            :         -1.0925853           -0.0029262           -1.0955115
 Magnitude           :                                                    1.0955115
    Molecular point group: c2v

    Geometry (in Angstrom), charge = -1, multiplicity = 3:

       Center              X                  Y                   Z               Mass
    ------------   -----------------  -----------------  -----------------  -----------------
         O            0.000000000000     0.000000000000    -0.360254632655    15.994914619570
         N            0.000000000000     0.000000000000     0.411498367345    14.003074004430

  Charge       = -1
  Multiplicity = 3
  Basis Set: CC-PVTZ
    Blend: CC-PVTZ
  Basis Set: (CC-PVTZ AUX)
    Blend: CC-PVTZ-JKFIT

    Orbital Energies [Eh]
    ---------------------

    Alpha Occupied:

       1A1   -18.851566     2A1   -13.992229     3A1    -1.177340
       1B1    -0.388113     1B2    -0.388113     4A1    -0.304452
       5A1    -0.136393     2B1     0.342887     2B2     0.342887

    Alpha Virtual:

       6A1     0.506303     3B1     0.651639     3B2     0.651639
       7A1     0.691869     8A1     0.827728     4B1     0.922067
       4B2     0.922067     1A2     1.236295     9A1     1.236295
      10A1     1.527756    11A1     1.637783     5B2     1.700799
       5B1     1.700799    12A1     1.987148     2A2     1.987150
      13A1     2.330884     6B1     2.383216     6B2     2.383216
       7B1     3.022937     7B2     3.022937    14A1     3.275132
      15A1     3.618401     8B2     4.066530     8B1     4.066530
      16A1     4.212685    17A1     4.329585     3A2     4.329586
       9B1     4.344028     9B2     4.344028    10B2     4.656320
      10B1     4.656320     4A2     4.734984    18A1     4.734985
      19A1     5.079252    11B1     5.388333    11B2     5.388333
      12B1     5.596119    12B2     5.596119    20A1     6.444378
      21A1     6.456346     5A2     6.456350    13B2     7.007281
      13B1     7.007281     6A2     7.027235    22A1     7.027236
      23A1     7.399612    24A1     8.437273    14B1     8.969002
      14B2     8.969002    25A1    10.652643    26A1    25.092389

    Beta Occupied:

       1A1   -18.834983     2A1   -13.979543     3A1    -1.157571
       1B1    -0.335520     1B2    -0.335520     4A1    -0.260645
       5A1    -0.079165

    Beta Virtual:

       2B1     0.478773     2B2     0.478773     6A1     0.521439
       3B1     0.679157     3B2     0.679157     7A1     0.712313
       8A1     0.860495     4B1     0.977315     4B2     0.977315
       1A2     1.275307     9A1     1.275307    10A1     1.546992
      11A1     1.666716     5B2     1.738689     5B1     1.738689
      12A1     2.040200     2A2     2.040200    13A1     2.350010
       6B1     2.417221     6B2     2.417221     7B1     3.065061
       7B2     3.065061    14A1     3.308717    15A1     3.644353
       8B2     4.110697     8B1     4.110697    16A1     4.236928
      17A1     4.356468     3A2     4.356468     9B1     4.387494
       9B2     4.387494    10B1     4.689688    10B2     4.689688
       4A2     4.796755    18A1     4.796755    19A1     5.100129
      11B1     5.418852    11B2     5.418852    12B1     5.642344
      12B2     5.642344    20A1     6.468984    21A1     6.515432
       5A2     6.515434    13B2     7.036129    13B1     7.036129
      22A1     7.067052     6A2     7.067052    23A1     7.413449
      24A1     8.454538    14B1     9.005731    14B2     9.005731
      25A1    10.683568    26A1    25.114185

    Final Occupation by Irrep:
             A1    A2    B1    B2
    DOCC [     5,    0,    1,    1 ]
    SOCC [     0,    0,    1,    1 ]
    NA   [     5,    0,    2,    2 ]
    NB   [     5,    0,    1,    1 ]

  @DF-UKS Final Energy:  -128.95036537819112

   => Energetics <=

    Nuclear Repulsion Energy =             38.3981970883430321
    One-Electron Energy =                -255.6958814670439892
    Two-Electron Energy =                 101.5468937452245370
    DFT Exchange-Correlation Energy =     -13.1995747447147007
    Empirical Dispersion Energy =           0.0000000000000000
    VV10 Nonlocal Energy =                  0.0000000000000000
    Total Energy =                       -128.9503653781911225

  UHF NO Occupations:
  HONO-2 :    5 A1 1.9997376
  HONO-1 :    2 B1 1.0000000
  HONO-0 :    2 B2 1.0000000
  LUNO+0 :    6 A1 0.0002624
  LUNO+1 :    3 B2 0.0001621
  LUNO+2 :    3 B1 0.0001621
  LUNO+3 :    7 A1 0.0000682

Computation Completed

Properties will be evaluated at   0.000000,   0.000000,   0.000000 [a0]

Properties computed using the B3LYP density matrix

 Multipole Moments:

 ------------------------------------------------------------------------------------
     Multipole            Electronic (a.u.)      Nuclear  (a.u.)        Total (a.u.)
 ------------------------------------------------------------------------------------

 L = 1.  Multiply by 2.5417464519 to convert [e a0] to [Debye]
 Dipole X            :          0.0000000            0.0000000            0.0000000
 Dipole Y            :          0.0000000            0.0000000            0.0000000
 Dipole Z            :         -1.0925853           -0.0029262           -1.0955115
 Magnitude           :                                                    1.0955115

 L = 2.  Multiply by 1.3450342976 to convert [e a0^2] to [Debye ang]
 Quadrupole XX       :         -9.5492074            0.0000000           -9.5492074
 Quadrupole XY       :          0.0000000            0.0000000            0.0000000
 Quadrupole XZ       :          0.0000000            0.0000000            0.0000000
 Quadrupole YY       :         -9.5492074            0.0000000           -9.5492074
 Quadrupole YZ       :          0.0000000            0.0000000            0.0000000
 Quadrupole ZZ       :        -20.0253993            7.9405610          -12.0848383
 Traceless XX        :          3.4920640           -2.6468537            0.8452103
 Traceless YY        :          3.4920640           -2.6468537            0.8452103
 Traceless ZZ        :         -6.9841280            5.2937073           -1.6904206

 ------------------------------------------------------------------------------------
  ==> Computing MBIS Charges <==

  Electron Count from Grid (Expected Number): 16.00000 (16.00000)
  Difference:  0.00000

  MBIS Charges: (a.u.)
   Center  Symbol  Z      Pop.       Charge
      1       O    8    7.894530    0.105470
      2       N    7    8.105471   -1.105471

  MBIS Dipoles: [e a0]
   Center  Symbol  Z        X           Y           Z
      1       O    8   -0.000000   -0.000000    0.209768
      2       N    7   -0.000000   -0.000000   -0.373842

  MBIS Quadrupoles: [e a0^2]
   Center  Symbol  Z      XX        XY        XZ        YY        YZ        ZZ
      1       O    8   -3.0711    0.0000    0.0000   -3.0711   -0.0000   -3.7079
      2       N    7   -6.4781   -0.0000   -0.0000   -6.4781    0.0000   -6.8903

  MBIS Octupoles: [e a0^3]
   Center  Symbol  Z      XXX       XXY       XXZ       XYY       XYZ       XZZ       YYY       YYZ       YZZ       ZZZ
      1       O    8    0.0000   -0.0000    0.3368    0.0000   -0.0000   -0.0000   -0.0000    0.3368    0.0000    0.6452
      2       N    7    0.0000   -0.0000   -1.5459    0.0000   -0.0000   -0.0000   -0.0000   -1.5459    0.0000    0.5292

  MBIS Radial Moments:
   Center  Symbol  Z      [a0^2]      [a0^3]      [a0^4]
      1       O    8    9.850049   17.705737   38.606568
      2       N    7   19.846591   50.446142   150.959723

  MBIS Valence Widths: [a0]
   Center  Symbol  Z     Width
      1       O    8    0.360105
      2       N    7    0.507156

*** tstop() called on Mac.lan at Sun Aug 10 17:46:04 2025
Module time:
	user time   =       4.09 seconds =       0.07 minutes
	system time =       2.98 seconds =       0.05 minutes
	total time  =          1 seconds =       0.02 minutes
Total time:
	user time   =      17.76 seconds =       0.30 minutes
	system time =       5.13 seconds =       0.09 minutes
	total time  =          2 seconds =       0.03 minutes

    Psi4 stopped on: Sunday, 10 August 2025 05:46PM
    Psi4 wall time for execution: 0:00:02.21

*** Psi4 exiting successfully. Buy a developer a beer!
