                               Psi4 1.9.1 release

  ==> Input File <==

--------------------------------------------------------------------------
molecule {
-1 3
C           0.000000           0.000000           0.000000
H           0.000000           0.000000           0.916348
}

set {
basis              cc-pvtz
reference          uks
maxiter            500
DAMPING_PERCENTAGE 1
E_CONVERGENCE      1.0E-8
D_CONVERGENCE      1.0E-8
DIIS_MAX_VECS      400
MBIS_MAXITER       8000
guess              read
}

E, wfn = energy('b3lyp', restart_file='last_wfn', return_wfn=True)
properties('b3lyp','MBIS_CHARGES', wfn=wfn)
wfn.to_file('last_wfn')
--------------------------------------------------------------------------

    Molecular point group: c2v
  Charge       = -1
  Multiplicity = 3
  Basis Set: CC-PVTZ
    Blend: CC-PVTZ
  Basis Set: (CC-PVTZ AUX)
    Blend: CC-PVTZ-JKFIT
  @DF-UKS Final Energy:   -38.49067064649078
    Total Energy =                        -38.4906706464907842
 Dipole X            :          0.0000000            0.0000000            0.0000000
 Dipole Y            :          0.0000000            0.0000000            0.0000000
 Dipole Z            :         -0.0499730            0.7924906            0.7425177
 Magnitude           :                                                    0.7425177
    Molecular point group: c2v

    Geometry (in Angstrom), charge = -1, multiplicity = 3:

       Center              X                  Y                   Z               Mass
    ------------   -----------------  -----------------  -----------------  -----------------
         C            0.000000000000     0.000000000000    -0.070997145975    12.000000000000
         H            0.000000000000     0.000000000000     0.845350854025     1.007825032230

  Charge       = -1
  Multiplicity = 3
  Basis Set: CC-PVTZ
    Blend: CC-PVTZ
  Basis Set: (CC-PVTZ AUX)
    Blend: CC-PVTZ-JKFIT

    Orbital Energies [Eh]
    ---------------------

    Alpha Occupied:

       1A1    -9.843064     2A1    -0.350196     3A1     0.020105
       1B1     0.093128     1B2     0.093128

    Alpha Virtual:

       4A1     0.298807     5A1     0.543345     2B1     0.578347
       2B2     0.578347     6A1     0.645492     7A1     0.824122
       3B2     0.916905     3B1     0.916905     1A2     0.969822
       8A1     0.969822     9A1     1.287009     4B2     1.364845
       4B1     1.364845    10A1     2.018632    11A1     2.254869
       5B2     2.307045     5B1     2.307045    12A1     2.515024
      13A1     2.898640     2A2     2.898640     6B2     3.002141
       6B1     3.002141     7B1     3.043506     7B2     3.043506
      14A1     3.268800     3A2     3.268800    15A1     3.352592
       8B2     3.383247     8B1     3.383247    16A1     3.927206
      17A1     4.125474     4A2     4.125474     9B2     4.247930
       9B1     4.247930    18A1     5.490566    10B1     5.561627
      10B2     5.561627    19A1     5.730851    20A1    11.070676

    Beta Occupied:

       1A1    -9.820438     2A1    -0.284447     3A1     0.060263

    Beta Virtual:

       1B1     0.247908     1B2     0.247908     4A1     0.303834
       5A1     0.561016     2B1     0.648191     2B2     0.648191
       6A1     0.680667     7A1     0.846986     3B2     0.951590
       3B1     0.951590     1A2     1.046381     8A1     1.046381
       9A1     1.308843     4B2     1.387417     4B1     1.387417
      10A1     2.048968    11A1     2.277780     5B2     2.385877
       5B1     2.385877    12A1     2.554511     2A2     2.950607
      13A1     2.950607     6B1     3.087040     6B2     3.087040
       7B2     3.097247     7B1     3.097247     3A2     3.380705
      14A1     3.380706    15A1     3.385708     8B2     3.421336
       8B1     3.421336    16A1     3.949302     4A2     4.155328
      17A1     4.155328     9B2     4.258332     9B1     4.258332
      18A1     5.506771    10B1     5.591656    10B2     5.591656
      19A1     5.743934    20A1    11.096302

    Final Occupation by Irrep:
             A1    A2    B1    B2
    DOCC [     3,    0,    0,    0 ]
    SOCC [     0,    0,    1,    1 ]
    NA   [     3,    0,    1,    1 ]
    NB   [     3,    0,    0,    0 ]

  @DF-UKS Final Energy:   -38.49067064948927

   => Energetics <=

    Nuclear Repulsion Energy =              3.4649099076115188
    One-Electron Energy =                 -60.3951132849523447
    Two-Electron Energy =                  23.2748667812824266
    DFT Exchange-Correlation Energy =      -4.8353340534308780
    Empirical Dispersion Energy =           0.0000000000000000
    VV10 Nonlocal Energy =                  0.0000000000000000
    Total Energy =                        -38.4906706494892745

  UHF NO Occupations:
  HONO-2 :    3 A1 1.9977692
  HONO-1 :    1 B2 1.0000000
  HONO-0 :    1 B1 1.0000000
  LUNO+0 :    4 A1 0.0022308
  LUNO+1 :    5 A1 0.0002492
  LUNO+2 :    6 A1 0.0000011
  LUNO+3 :    7 A1 0.0000000

Computation Completed

Properties will be evaluated at   0.000000,   0.000000,   0.000000 [a0]

Properties computed using the B3LYP density matrix

 Multipole Moments:

 ------------------------------------------------------------------------------------
     Multipole            Electronic (a.u.)      Nuclear  (a.u.)        Total (a.u.)
 ------------------------------------------------------------------------------------

 L = 1.  Multiply by 2.5417464519 to convert [e a0] to [Debye]
 Dipole X            :          0.0000000            0.0000000            0.0000000
 Dipole Y            :          0.0000000            0.0000000            0.0000000
 Dipole Z            :         -0.0499730            0.7924906            0.7425177
 Magnitude           :                                                    0.7425177

 L = 2.  Multiply by 1.3450342976 to convert [e a0^2] to [Debye ang]
 Quadrupole XX       :         -7.8559273            0.0000000           -7.8559273
 Quadrupole XY       :          0.0000000            0.0000000            0.0000000
 Quadrupole XZ       :          0.0000000            0.0000000            0.0000000
 Quadrupole YY       :         -7.8559273            0.0000000           -7.8559273
 Quadrupole YZ       :          0.0000000            0.0000000            0.0000000
 Quadrupole ZZ       :        -10.7217290            2.6599492           -8.0617798
 Traceless XX        :          0.9552672           -0.8866497            0.0686175
 Traceless YY        :          0.9552672           -0.8866497            0.0686175
 Traceless ZZ        :         -1.9105345            1.7732995           -0.1372350

 ------------------------------------------------------------------------------------
  ==> Computing MBIS Charges <==

  Electron Count from Grid (Expected Number):  8.00000 ( 8.00000)
  Difference:  0.00000

  MBIS Charges: (a.u.)
   Center  Symbol  Z      Pop.       Charge
      1       C    6    7.159361   -1.159361
      2       H    1    0.840639    0.159361

  MBIS Dipoles: [e a0]
   Center  Symbol  Z        X           Y           Z
      1       C    6    0.000000   -0.000000    0.310436
      2       H    1    0.000000   -0.000000    0.021959

  MBIS Quadrupoles: [e a0^2]
   Center  Symbol  Z      XX        XY        XZ        YY        YZ        ZZ
      1       C    6   -7.4674   -0.0000    0.0000   -7.4674   -0.0000   -8.0280
      2       H    1   -0.3885    0.0000    0.0000   -0.3885    0.0000   -0.4065

  MBIS Octupoles: [e a0^3]
   Center  Symbol  Z      XXX       XXY       XXZ       XYY       XYZ       XZZ       YYY       YYZ       YZZ       ZZZ
      1       C    6   -0.0000    0.0000    0.7083    0.0000   -0.0000    0.0000    0.0000    0.7083    0.0000    0.7461
      2       H    1    0.0000   -0.0000   -0.0013    0.0000   -0.0000    0.0000   -0.0000   -0.0013    0.0000   -0.0161

  MBIS Radial Moments:
   Center  Symbol  Z      [a0^2]      [a0^3]      [a0^4]
      1       C    6   22.962826   65.393869   217.663201
      2       H    1    1.183480    2.016946    4.134868

  MBIS Valence Widths: [a0]
   Center  Symbol  Z     Width
      1       C    6    0.597964
      2       H    1    0.344292

*** tstop() called on Mac.lan at Sun Aug 10 17:34:53 2025
Module time:
	user time   =       2.53 seconds =       0.04 minutes
	system time =       2.30 seconds =       0.04 minutes
	total time  =          1 seconds =       0.02 minutes
Total time:
	user time   =      10.78 seconds =       0.18 minutes
	system time =       4.47 seconds =       0.07 minutes
	total time  =          2 seconds =       0.03 minutes

    Psi4 stopped on: Sunday, 10 August 2025 05:34PM
    Psi4 wall time for execution: 0:00:01.49

*** Psi4 exiting successfully. Buy a developer a beer!
