                               Psi4 1.9.1 release

  ==> Input File <==

--------------------------------------------------------------------------
molecule {
-1 2
O           0.000000           0.000000           0.000000
C           0.000000           0.000000           0.944355
}

set {
basis              cc-pvtz
reference          uks
maxiter            500
DAMPING_PERCENTAGE 1
E_CONVERGENCE      1.0E-8
D_CONVERGENCE      1.0E-8
DIIS_MAX_VECS      400
MBIS_MAXITER       8000
guess              read
}

E, wfn = energy('b3lyp', restart_file='last_wfn', return_wfn=True)
properties('b3lyp','MBIS_CHARGES', wfn=wfn)
wfn.to_file('last_wfn')
--------------------------------------------------------------------------

    Molecular point group: c2v
  Charge       = -1
  Multiplicity = 2
  Basis Set: CC-PVTZ
    Blend: CC-PVTZ
  Basis Set: (CC-PVTZ AUX)
    Blend: CC-PVTZ-JKFIT
  @DF-UKS Final Energy:  -113.08591379615538
    Total Energy =                       -113.0859137961553813
 Dipole X            :          0.0000000            0.0000000            0.0000000
 Dipole Y            :          0.0000000            0.0000000            0.0000000
 Dipole Z            :         -1.2772198           -0.0019450           -1.2791648
 Magnitude           :                                                    1.2791648
    Molecular point group: c2v

    Geometry (in Angstrom), charge = -1, multiplicity = 2:

       Center              X                  Y                   Z               Mass
    ------------   -----------------  -----------------  -----------------  -----------------
         O            0.000000000000     0.000000000000    -0.404797090972    15.994914619570
         C            0.000000000000     0.000000000000     0.539557909028    12.000000000000

  Charge       = -1
  Multiplicity = 2
  Basis Set: CC-PVTZ
    Blend: CC-PVTZ
  Basis Set: (CC-PVTZ AUX)
    Blend: CC-PVTZ-JKFIT

    Orbital Energies [Eh]
    ---------------------

    Alpha Occupied:

       1A1   -18.858899     2A1    -9.871648     3A1    -0.927815
       4A1    -0.263035     1B1    -0.234830     1B2    -0.224943
       5A1    -0.045285     2B1     0.261985

    Alpha Virtual:

       2B2     0.334711     6A1     0.404867     3B1     0.556999
       7A1     0.564977     3B2     0.565339     8A1     0.799681
       4B1     0.864577     4B2     0.869172     1A2     0.931208
       9A1     0.933527    10A1     1.077632     5B1     1.235339
       5B2     1.238096    11A1     1.473891     2A2     1.854495
      12A1     1.855435    13A1     1.946193     6B2     2.160512
       6B1     2.161358    14A1     2.224759     7B1     2.347217
       7B2     2.350771    15A1     2.960533     8B1     2.964337
       8B2     2.964502     3A2     3.220494    16A1     3.221930
       4A2     3.315286    17A1     3.316668     9B1     3.332081
       9B2     3.333127    18A1     3.401422    10B1     3.770411
      10B2     3.774167    19A1     4.006808    11B2     4.553589
      11B1     4.555408    12B1     5.435152    12B2     5.435187
      20A1     5.443526     5A2     6.120240    21A1     6.120755
      22A1     6.544330     6A2     6.576746    23A1     6.577733
      13B1     6.879585    13B2     6.880707    14B2     7.225687
      14B1     7.226235    24A1     7.261224    25A1     8.599242
      26A1    15.153933

    Beta Occupied:

       1A1   -18.851123     2A1    -9.867615     3A1    -0.916997
       4A1    -0.248628     1B2    -0.219627     1B1    -0.195429
       5A1    -0.021662

    Beta Virtual:

       2B2     0.344047     2B1     0.369180     6A1     0.410085
       3B2     0.569447     7A1     0.580130     3B1     0.589728
       8A1     0.806335     4B2     0.872401     4B1     0.887436
       9A1     0.955342     1A2     0.955456    10A1     1.089343
       5B2     1.240493     5B1     1.264469    11A1     1.480380
       2A2     1.870650    12A1     1.870705    13A1     1.954668
       6B2     2.164083     6B1     2.185277    14A1     2.240122
       7B2     2.353673     7B1     2.372734    15A1     2.968112
       8B2     2.987337     8B1     2.987387     3A2     3.241958
      16A1     3.241999    17A1     3.332280     9B2     3.333110
       4A2     3.333858     9B1     3.356569    18A1     3.410735
      10B2     3.778443    10B1     3.800696    19A1     4.014025
      11B2     4.556724    11B1     4.577787    12B2     5.451610
      12B1     5.451615    20A1     5.452884     5A2     6.133957
      21A1     6.134033    22A1     6.549992     6A2     6.602508
      23A1     6.602652    13B2     6.884004    13B1     6.903140
      14B2     7.228343    14B1     7.247923    24A1     7.269942
      25A1     8.609342    26A1    15.164480

    Final Occupation by Irrep:
             A1    A2    B1    B2
    DOCC [     5,    0,    1,    1 ]
    SOCC [     0,    0,    1,    0 ]
    NA   [     5,    0,    2,    1 ]
    NB   [     5,    0,    1,    1 ]

  @DF-UKS Final Energy:  -113.08591379643293

   => Energetics <=

    Nuclear Repulsion Energy =             26.8972008536620208
    One-Electron Energy =                -211.0973136863026980
    Two-Electron Energy =                  82.7821682649150006
    DFT Exchange-Correlation Energy =     -11.6679692287072445
    Empirical Dispersion Energy =           0.0000000000000000
    VV10 Nonlocal Energy =                  0.0000000000000000
    Total Energy =                       -113.0859137964329335

  UHF NO Occupations:
  HONO-2 :    1 B1 1.9997971
  HONO-1 :    5 A1 1.9995819
  HONO-0 :    2 B1 1.0000000
  LUNO+0 :    6 A1 0.0004181
  LUNO+1 :    3 B1 0.0002029
  LUNO+2 :    7 A1 0.0000474
  LUNO+3 :    2 B2 0.0000102

Computation Completed

Properties will be evaluated at   0.000000,   0.000000,   0.000000 [a0]

Properties computed using the B3LYP density matrix

 Multipole Moments:

 ------------------------------------------------------------------------------------
     Multipole            Electronic (a.u.)      Nuclear  (a.u.)        Total (a.u.)
 ------------------------------------------------------------------------------------

 L = 1.  Multiply by 2.5417464519 to convert [e a0] to [Debye]
 Dipole X            :          0.0000000            0.0000000            0.0000000
 Dipole Y            :          0.0000000            0.0000000            0.0000000
 Dipole Z            :         -1.2772198           -0.0019450           -1.2791648
 Magnitude           :                                                    1.2791648

 L = 2.  Multiply by 1.3450342976 to convert [e a0^2] to [Debye ang]
 Quadrupole XX       :        -12.1795141            0.0000000          -12.1795141
 Quadrupole XY       :          0.0000000            0.0000000            0.0000000
 Quadrupole XZ       :          0.0000000            0.0000000            0.0000000
 Quadrupole YY       :         -9.3773644            0.0000000           -9.3773644
 Quadrupole YZ       :          0.0000000            0.0000000            0.0000000
 Quadrupole ZZ       :        -24.1573243           10.9189660          -13.2383583
 Traceless XX        :          3.0585535           -3.6396553           -0.5811019
 Traceless YY        :          5.8607032           -3.6396553            2.2210479
 Traceless ZZ        :         -8.9192567            7.2793107           -1.6399460

 ------------------------------------------------------------------------------------
  ==> Computing MBIS Charges <==

  Electron Count from Grid (Expected Number): 15.00000 (15.00000)
  Difference: -0.00000

  MBIS Charges: (a.u.)
   Center  Symbol  Z      Pop.       Charge
      1       O    8    8.035707   -0.035707
      2       C    6    6.964293   -0.964293

  MBIS Dipoles: [e a0]
   Center  Symbol  Z        X           Y           Z
      1       O    8   -0.000000   -0.000000    0.060659
      2       C    6   -0.000000    0.000000   -0.383929

  MBIS Quadrupoles: [e a0^2]
   Center  Symbol  Z      XX        XY        XZ        YY        YZ        ZZ
      1       O    8   -3.3759    0.0000   -0.0000   -3.1779   -0.0000   -3.7121
      2       C    6   -8.8036    0.0000   -0.0000   -6.1995    0.0000   -7.6271

  MBIS Octupoles: [e a0^3]
   Center  Symbol  Z      XXX       XXY       XXZ       XYY       XYZ       XZZ       YYY       YYZ       YZZ       ZZZ
      1       O    8   -0.0000   -0.0000    0.0733   -0.0000    0.0000    0.0000    0.0000    0.1375   -0.0000    0.2854
      2       C    6   -0.0000   -0.0000   -2.2622   -0.0000   -0.0000    0.0000    0.0000   -0.6790    0.0000   -0.5609

  MBIS Radial Moments:
   Center  Symbol  Z      [a0^2]      [a0^3]      [a0^4]
      1       O    8   10.265858   18.278785   39.277166
      2       C    6   22.630264   66.204981   226.286300

  MBIS Valence Widths: [a0]
   Center  Symbol  Z     Width
      1       O    8    0.365813
      2       C    6    0.602600

*** tstop() called on Mac.lan at Sun Aug 10 17:41:59 2025
Module time:
	user time   =       3.44 seconds =       0.06 minutes
	system time =       2.67 seconds =       0.04 minutes
	total time  =          0 seconds =       0.00 minutes
Total time:
	user time   =      19.57 seconds =       0.33 minutes
	system time =       5.17 seconds =       0.09 minutes
	total time  =          2 seconds =       0.03 minutes

    Psi4 stopped on: Sunday, 10 August 2025 05:41PM
    Psi4 wall time for execution: 0:00:02.40

*** Psi4 exiting successfully. Buy a developer a beer!
