                               Psi4 1.9.1 release

  ==> Input File <==

--------------------------------------------------------------------------
molecule {
-1 3
O           0.000000           0.000000           0.000000
N           0.000000           0.000000           1.814138
}

set {
basis              cc-pvtz
reference          uks
maxiter            500
DAMPING_PERCENTAGE 1
E_CONVERGENCE      1.0E-8
D_CONVERGENCE      1.0E-8
DIIS_MAX_VECS      400
MBIS_MAXITER       8000
guess              read
}

E, wfn = energy('b3lyp', restart_file='last_wfn', return_wfn=True)
properties('b3lyp','MBIS_CHARGES', wfn=wfn)
wfn.to_file('last_wfn')
--------------------------------------------------------------------------

    Molecular point group: c2v
  Charge       = -1
  Multiplicity = 3
  Basis Set: CC-PVTZ
    Blend: CC-PVTZ
  Basis Set: (CC-PVTZ AUX)
    Blend: CC-PVTZ-JKFIT
  @DF-UKS Final Energy:  -129.81999016142726
    Total Energy =                       -129.8199901614272562
 Dipole X            :          0.0000000            0.0000000            0.0000000
 Dipole Y            :          0.0000000            0.0000000            0.0000000
 Dipole Z            :          0.2525251           -0.0068786            0.2456465
 Magnitude           :                                                    0.2456465
    Molecular point group: c2v

    Geometry (in Angstrom), charge = -1, multiplicity = 3:

       Center              X                  Y                   Z               Mass
    ------------   -----------------  -----------------  -----------------  -----------------
         O            0.000000000000     0.000000000000    -0.846840399423    15.994914619570
         N            0.000000000000     0.000000000000     0.967297600577    14.003074004430

  Charge       = -1
  Multiplicity = 3
  Basis Set: CC-PVTZ
    Blend: CC-PVTZ
  Basis Set: (CC-PVTZ AUX)
    Blend: CC-PVTZ-JKFIT

    Orbital Energies [Eh]
    ---------------------

    Alpha Occupied:

       1A1   -18.838750     2A1   -14.124664     3A1    -0.594933
       4A1    -0.450035     1B2    -0.057239     1B1    -0.057239
       5A1    -0.053248     2B2     0.024770     2B1     0.024770

    Alpha Virtual:

       6A1     0.228679     7A1     0.679825     3B2     0.699234
       3B1     0.699234     8A1     0.818159     4B1     0.896942
       4B2     0.896942     9A1     0.908397     1A2     1.277142
      10A1     1.277142     5B1     1.288579     5B2     1.288579
      11A1     1.322790    12A1     1.588118     2A2     1.801733
      13A1     1.801735     6B1     1.980919     6B2     1.980919
      14A1     2.309524     7B2     3.058763     7B1     3.058763
      15A1     3.262879    16A1     3.806625     8B1     3.904880
       8B2     3.904880     9B1     4.121795     9B2     4.121795
      17A1     4.131895     3A2     4.131896    10B1     4.174934
      10B2     4.174934    18A1     4.414333     4A2     4.642214
      19A1     4.642237    11B1     4.719874    11B2     4.719874
      20A1     5.047551    12B2     5.458377    12B1     5.458377
       5A2     5.458432    21A1     5.458437    13B1     5.578801
      13B2     5.578801    22A1     5.663110    23A1     5.864912
      24A1     6.507558     6A2     6.507582    14B1     6.656840
      14B2     6.656840    25A1     7.029692    26A1     8.132029

    Beta Occupied:

       1A1   -18.830524     2A1   -14.088479     3A1    -0.566454
       4A1    -0.344965     5A1    -0.035978     1B1     0.025577
       1B2     0.025577

    Beta Virtual:

       2B1     0.182239     2B2     0.182239     6A1     0.256121
       7A1     0.705394     3B2     0.763967     3B1     0.763967
       8A1     0.844500     4B1     0.916645     4B2     0.916645
       9A1     0.919996     5B1     1.322877     5B2     1.322877
      10A1     1.338704    11A1     1.351397     1A2     1.351397
      12A1     1.612335     2A2     1.822664    13A1     1.822666
       6B1     1.995494     6B2     1.995494    14A1     2.325737
       7B2     3.154462     7B1     3.154462    15A1     3.293986
      16A1     3.824632     8B1     3.933590     8B2     3.933590
      17A1     4.206290     3A2     4.206291     9B1     4.223991
       9B2     4.223991    10B1     4.230608    10B2     4.230608
      18A1     4.455235     4A2     4.780787    19A1     4.780809
      11B1     4.803336    11B2     4.803336    20A1     5.083772
       5A2     5.471341    21A1     5.471345    12B2     5.487017
      12B1     5.487017    13B1     5.585881    13B2     5.585881
      22A1     5.732347    23A1     5.876356    24A1     6.549323
       6A2     6.549347    14B1     6.668288    14B2     6.668288
      25A1     7.023687    26A1     8.152500

    Final Occupation by Irrep:
             A1    A2    B1    B2
    DOCC [     5,    0,    1,    1 ]
    SOCC [     0,    0,    1,    1 ]
    NA   [     5,    0,    2,    2 ]
    NB   [     5,    0,    1,    1 ]

  @DF-UKS Final Energy:  -129.81999016118908

   => Energetics <=

    Nuclear Repulsion Energy =             16.3349887370861531
    One-Electron Energy =                -215.3669946486823221
    Two-Electron Energy =                  81.7243107653611673
    DFT Exchange-Correlation Energy =     -12.5122950149540788
    Empirical Dispersion Energy =           0.0000000000000000
    VV10 Nonlocal Energy =                  0.0000000000000000
    Total Energy =                       -129.8199901611890823

  UHF NO Occupations:
  HONO-2 :    5 A1 1.9864627
  HONO-1 :    2 B2 1.0000000
  HONO-0 :    2 B1 1.0000000
  LUNO+0 :    6 A1 0.0135373
  LUNO+1 :    3 B2 0.0014861
  LUNO+2 :    3 B1 0.0014861
  LUNO+3 :    7 A1 0.0007360

Computation Completed

Properties will be evaluated at   0.000000,   0.000000,   0.000000 [a0]

Properties computed using the B3LYP density matrix

 Multipole Moments:

 ------------------------------------------------------------------------------------
     Multipole            Electronic (a.u.)      Nuclear  (a.u.)        Total (a.u.)
 ------------------------------------------------------------------------------------

 L = 1.  Multiply by 2.5417464519 to convert [e a0] to [Debye]
 Dipole X            :          0.0000000            0.0000000            0.0000000
 Dipole Y            :          0.0000000            0.0000000            0.0000000
 Dipole Z            :          0.2525251           -0.0068786            0.2456465
 Magnitude           :                                                    0.2456465

 L = 2.  Multiply by 1.3450342976 to convert [e a0^2] to [Debye ang]
 Quadrupole XX       :         -9.9175265            0.0000000           -9.9175265
 Quadrupole XY       :          0.0000000            0.0000000            0.0000000
 Quadrupole XZ       :          0.0000000            0.0000000            0.0000000
 Quadrupole YY       :         -9.9175265            0.0000000           -9.9175265
 Quadrupole YZ       :          0.0000000            0.0000000            0.0000000
 Quadrupole ZZ       :        -56.6183208           43.8768230          -12.7414978
 Traceless XX        :         15.5669314          -14.6256077            0.9413238
 Traceless YY        :         15.5669314          -14.6256077            0.9413238
 Traceless ZZ        :        -31.1338629           29.2512154           -1.8826475

 ------------------------------------------------------------------------------------
  ==> Computing MBIS Charges <==

  Electron Count from Grid (Expected Number): 16.00000 (16.00000)
  Difference: -0.00000

  MBIS Charges: (a.u.)
   Center  Symbol  Z      Pop.       Charge
      1       O    8    8.645617   -0.645617
      2       N    7    7.354382   -0.354382

  MBIS Dipoles: [e a0]
   Center  Symbol  Z        X           Y           Z
      1       O    8   -0.000000   -0.000000   -0.000276
      2       N    7    0.000000    0.000000   -0.139471

  MBIS Quadrupoles: [e a0^2]
   Center  Symbol  Z      XX        XY        XZ        YY        YZ        ZZ
      1       O    8   -4.9776    0.0000    0.0000   -4.9776   -0.0000   -4.5035
      2       N    7   -4.9399    0.0000   -0.0000   -4.9399   -0.0000   -4.8915

  MBIS Octupoles: [e a0^3]
   Center  Symbol  Z      XXX       XXY       XXZ       XYY       XYZ       XZZ       YYY       YYZ       YZZ       ZZZ
      1       O    8    0.0000   -0.0000   -0.0449   -0.0000   -0.0000   -0.0000    0.0000   -0.0449    0.0000   -0.4549
      2       N    7    0.0000   -0.0000   -0.0171   -0.0000    0.0000   -0.0000   -0.0000   -0.0171   -0.0000    0.1899

  MBIS Radial Moments:
   Center  Symbol  Z      [a0^2]      [a0^3]      [a0^4]
      1       O    8   14.458697   29.522097   71.657028
      2       N    7   14.771348   33.401626   89.569150

  MBIS Valence Widths: [a0]
   Center  Symbol  Z     Width
      1       O    8    0.416634
      2       N    7    0.468285

*** tstop() called on Mac.lan at Sun Aug 10 17:47:39 2025
Module time:
	user time   =       4.03 seconds =       0.07 minutes
	system time =       1.84 seconds =       0.03 minutes
	total time  =          1 seconds =       0.02 minutes
Total time:
	user time   =      22.35 seconds =       0.37 minutes
	system time =       3.97 seconds =       0.07 minutes
	total time  =          3 seconds =       0.05 minutes

    Psi4 stopped on: Sunday, 10 August 2025 05:47PM
    Psi4 wall time for execution: 0:00:02.54

*** Psi4 exiting successfully. Buy a developer a beer!
