                               Psi4 1.9.1 release

  ==> Input File <==

--------------------------------------------------------------------------
molecule {
-1 1
O           0.000000           0.000000           0.000000
H           0.000000           0.000000           0.636144
}

set {
basis              cc-pvtz
reference          uks
maxiter            500
DAMPING_PERCENTAGE 1
E_CONVERGENCE      1.0E-8
D_CONVERGENCE      1.0E-8
DIIS_MAX_VECS      400
MBIS_MAXITER       8000
guess              read
}

E, wfn = energy('b3lyp', restart_file='last_wfn', return_wfn=True)
properties('b3lyp','MBIS_CHARGES', wfn=wfn)
wfn.to_file('last_wfn')
--------------------------------------------------------------------------

    Molecular point group: c2v
  Charge       = -1
  Multiplicity = 1
  Basis Set: CC-PVTZ
    Blend: CC-PVTZ
  Basis Set: (CC-PVTZ AUX)
    Blend: CC-PVTZ-JKFIT
  @DF-UKS Final Energy:   -75.55112735808790
    Total Energy =                        -75.5511273580878964
 Dipole X            :          0.0000000            0.0000000            0.0000000
 Dipole Y            :          0.0000000            0.0000000            0.0000000
 Dipole Z            :          0.0642575            0.5608353            0.6250928
 Magnitude           :                                                    0.6250928
    Molecular point group: c2v

    Geometry (in Angstrom), charge = -1, multiplicity = 1:

       Center              X                  Y                   Z               Mass
    ------------   -----------------  -----------------  -----------------  -----------------
         O            0.000000000000     0.000000000000    -0.037706973137    15.994914619570
         H            0.000000000000     0.000000000000     0.598437026863     1.007825032230

  Charge       = -1
  Multiplicity = 1
  Basis Set: CC-PVTZ
    Blend: CC-PVTZ
  Basis Set: (CC-PVTZ AUX)
    Blend: CC-PVTZ-JKFIT

    Orbital Energies [Eh]
    ---------------------

    Alpha Occupied:

       1A1   -18.612442     2A1    -0.637635     3A1    -0.036017
       1B2     0.118605     1B1     0.118605

    Alpha Virtual:

       4A1     0.333940     5A1     0.807282     2B1     0.916525
       2B2     0.916525     6A1     0.991428     3B2     1.154493
       3B1     1.154493     7A1     1.178843     1A2     1.893364
       8A1     1.893364     9A1     2.119655     4B1     2.273327
       4B2     2.273327    10A1     2.443347    11A1     3.231915
       5B2     3.772461     5B1     3.772461    12A1     3.812031
       2A2     3.812031     6B2     4.151508     6B1     4.151508
      13A1     4.384818     7B2     4.967806     7B1     4.967806
      14A1     5.109220     8B2     5.590683     8B1     5.590683
      15A1     6.397468     3A2     6.397468    16A1     6.413452
       9B2     6.633599     9B1     6.633599    17A1     6.668595
       4A2     6.668595    18A1     8.190209    19A1     8.413391
      10B2     8.790563    10B1     8.790563    20A1    15.212907

    Beta Occupied:

       1A1   -18.612442     2A1    -0.637635     3A1    -0.036017
       1B2     0.118605     1B1     0.118605

    Beta Virtual:

       4A1     0.333940     5A1     0.807282     2B1     0.916525
       2B2     0.916525     6A1     0.991428     3B2     1.154493
       3B1     1.154493     7A1     1.178843     1A2     1.893364
       8A1     1.893364     9A1     2.119655     4B1     2.273327
       4B2     2.273327    10A1     2.443347    11A1     3.231915
       5B2     3.772461     5B1     3.772461    12A1     3.812031
       2A2     3.812031     6B2     4.151508     6B1     4.151508
      13A1     4.384818     7B2     4.967806     7B1     4.967806
      14A1     5.109220     8B2     5.590683     8B1     5.590683
      15A1     6.397468     3A2     6.397468    16A1     6.413452
       9B2     6.633599     9B1     6.633599    17A1     6.668595
       4A2     6.668595    18A1     8.190209    19A1     8.413391
      10B2     8.790563    10B1     8.790563    20A1    15.212907

    Final Occupation by Irrep:
             A1    A2    B1    B2
    DOCC [     3,    0,    1,    1 ]
    SOCC [     0,    0,    0,    0 ]
    NA   [     3,    0,    1,    1 ]
    NB   [     3,    0,    1,    1 ]

  @DF-UKS Final Energy:   -75.55112735815787

   => Energetics <=

    Nuclear Repulsion Energy =              6.6548103658291202
    One-Electron Energy =                -120.8203335178202451
    Two-Electron Energy =                  46.2692624866941387
    DFT Exchange-Correlation Energy =      -7.6548666928608808
    Empirical Dispersion Energy =           0.0000000000000000
    VV10 Nonlocal Energy =                  0.0000000000000000
    Total Energy =                        -75.5511273581578564

  UHF NO Occupations:
  HONO-2 :    2 A1 2.0000000
  HONO-1 :    3 A1 2.0000000
  HONO-0 :    1 B2 2.0000000
  LUNO+0 :    4 A1 0.0000000
  LUNO+1 :    5 A1 0.0000000
  LUNO+2 :    6 A1 0.0000000
  LUNO+3 :    2 B2 0.0000000

Computation Completed

Properties will be evaluated at   0.000000,   0.000000,   0.000000 [a0]

Properties computed using the B3LYP density matrix

 Multipole Moments:

 ------------------------------------------------------------------------------------
     Multipole            Electronic (a.u.)      Nuclear  (a.u.)        Total (a.u.)
 ------------------------------------------------------------------------------------

 L = 1.  Multiply by 2.5417464519 to convert [e a0] to [Debye]
 Dipole X            :          0.0000000            0.0000000            0.0000000
 Dipole Y            :          0.0000000            0.0000000            0.0000000
 Dipole Z            :          0.0642575            0.5608353            0.6250928
 Magnitude           :                                                    0.6250928

 L = 2.  Multiply by 1.3450342976 to convert [e a0^2] to [Debye ang]
 Quadrupole XX       :         -6.0086065            0.0000000           -6.0086065
 Quadrupole XY       :          0.0000000            0.0000000            0.0000000
 Quadrupole XZ       :          0.0000000            0.0000000            0.0000000
 Quadrupole YY       :         -6.0086065            0.0000000           -6.0086065
 Quadrupole YZ       :          0.0000000            0.0000000            0.0000000
 Quadrupole ZZ       :         -6.2621384            1.3195135           -4.9426249
 Traceless XX        :          0.0845106           -0.4398378           -0.3553272
 Traceless YY        :          0.0845106           -0.4398378           -0.3553272
 Traceless ZZ        :         -0.1690212            0.8796756            0.7106544

 ------------------------------------------------------------------------------------
  ==> Computing MBIS Charges <==

  Electron Count from Grid (Expected Number): 10.00000 (10.00000)
  Difference:  0.00000

  MBIS Charges: (a.u.)
   Center  Symbol  Z      Pop.       Charge
      1       O    8    9.503794   -1.503794
      2       H    1    0.496206    0.503794

  MBIS Dipoles: [e a0]
   Center  Symbol  Z        X           Y           Z
      1       O    8    0.000000   -0.000000   -0.065526
      2       H    1    0.000000    0.000000    0.013733

  MBIS Quadrupoles: [e a0^2]
   Center  Symbol  Z      XX        XY        XZ        YY        YZ        ZZ
      1       O    8   -5.8869    0.0000    0.0000   -5.8869   -0.0000   -5.5001
      2       H    1   -0.1217    0.0000    0.0000   -0.1217   -0.0000   -0.1196

  MBIS Octupoles: [e a0^3]
   Center  Symbol  Z      XXX       XXY       XXZ       XYY       XYZ       XZZ       YYY       YYZ       YZZ       ZZZ
      1       O    8   -0.0000   -0.0000    0.1002   -0.0000   -0.0000    0.0000   -0.0000    0.1002   -0.0000   -0.0646
      2       H    1    0.0000   -0.0000    0.0027    0.0000   -0.0000    0.0000   -0.0000    0.0027   -0.0000    0.0052

  MBIS Radial Moments:
   Center  Symbol  Z      [a0^2]      [a0^3]      [a0^4]
      1       O    8   17.274012   36.216427   89.283476
      2       H    1    0.362888    0.445824    0.659053

  MBIS Valence Widths: [a0]
   Center  Symbol  Z     Width
      1       O    8    0.429936
      2       H    1    0.248085

*** tstop() called on Mac.lan at Sun Aug 10 17:37:19 2025
Module time:
	user time   =       2.78 seconds =       0.05 minutes
	system time =       3.23 seconds =       0.05 minutes
	total time  =          1 seconds =       0.02 minutes
Total time:
	user time   =      12.31 seconds =       0.21 minutes
	system time =       5.18 seconds =       0.09 minutes
	total time  =          2 seconds =       0.03 minutes

    Psi4 stopped on: Sunday, 10 August 2025 05:37PM
    Psi4 wall time for execution: 0:00:01.70

*** Psi4 exiting successfully. Buy a developer a beer!
