                               Psi4 1.9.1 release

  ==> Input File <==

--------------------------------------------------------------------------
molecule {
-1 2
O           0.000000           0.000000           0.000000
C           0.000000           0.000000           1.604281
}

set {
basis              cc-pvtz
reference          uks
maxiter            500
DAMPING_PERCENTAGE 1
E_CONVERGENCE      1.0E-8
D_CONVERGENCE      1.0E-8
DIIS_MAX_VECS      400
MBIS_MAXITER       8000
guess              read
}

E, wfn = energy('b3lyp', restart_file='last_wfn', return_wfn=True)
properties('b3lyp','MBIS_CHARGES', wfn=wfn)
wfn.to_file('last_wfn')
--------------------------------------------------------------------------

    Molecular point group: c2v
  Charge       = -1
  Multiplicity = 2
  Basis Set: CC-PVTZ
    Blend: CC-PVTZ
  Basis Set: (CC-PVTZ AUX)
    Blend: CC-PVTZ-JKFIT
  @DF-UKS Final Energy:  -113.19727264261921
    Total Energy =                       -113.1972726426192111
 Dipole X            :          0.0000000            0.0000000            0.0000000
 Dipole Y            :          0.0000000            0.0000000            0.0000000
 Dipole Z            :         -0.2266780           -0.0033043           -0.2299823
 Magnitude           :                                                    0.2299823
    Molecular point group: c2v

    Geometry (in Angstrom), charge = -1, multiplicity = 2:

       Center              X                  Y                   Z               Mass
    ------------   -----------------  -----------------  -----------------  -----------------
         O            0.000000000000     0.000000000000    -0.687673895835    15.994914619570
         C            0.000000000000     0.000000000000     0.916607104165    12.000000000000

  Charge       = -1
  Multiplicity = 2
  Basis Set: CC-PVTZ
    Blend: CC-PVTZ
  Basis Set: (CC-PVTZ AUX)
    Blend: CC-PVTZ-JKFIT

    Orbital Energies [Eh]
    ---------------------

    Alpha Occupied:

       1A1   -18.852177     2A1    -9.994963     3A1    -0.623802
       4A1    -0.260327     1B1    -0.052158     5A1    -0.048194
       1B2    -0.029389     2B1     0.085151

    Alpha Virtual:

       2B2     0.175652     6A1     0.339797     3B1     0.543118
       3B2     0.558121     7A1     0.559956     8A1     0.598735
       9A1     0.824999     4B1     0.892770     4B2     0.896361
       1A2     0.928809    10A1     0.931539     5B1     1.039447
       5B2     1.040041    11A1     1.274558    12A1     1.508784
       2A2     1.786530    13A1     1.787042     6B1     1.946340
       6B2     1.948467    14A1     2.138837     7B1     2.267260
       7B2     2.282157    15A1     2.605134     8B1     2.942409
       8B2     2.943292     3A2     2.977690    16A1     2.980248
       9B1     3.123791     9B2     3.129610    17A1     3.150978
       4A2     3.208932    18A1     3.215340    10B1     3.398625
      10B2     3.406705    19A1     3.499572    11B1     3.999815
      11B2     4.004374    20A1     4.017114    21A1     5.038447
      12B1     5.438235    12B2     5.438273     5A2     5.479853
      22A1     5.480271    13B2     5.706251    13B1     5.709327
      23A1     6.075577     6A2     6.517870    24A1     6.518936
      14B1     6.812268    14B2     6.814647    25A1     7.370261
      26A1     8.532545

    Beta Occupied:

       1A1   -18.847745     2A1    -9.981932     3A1    -0.612728
       4A1    -0.222316     5A1    -0.035755     1B2    -0.029203
       1B1    -0.006417

    Beta Virtual:

       2B2     0.189025     2B1     0.223555     6A1     0.351501
       7A1     0.568270     3B2     0.568332     3B1     0.593654
       8A1     0.616652     9A1     0.829523     4B2     0.895096
       4B1     0.910015     1A2     0.963698    10A1     0.963902
       5B2     1.042872     5B1     1.063898    11A1     1.285499
      12A1     1.512828     2A2     1.794338    13A1     1.794441
       6B2     1.949064     6B1     1.968081    14A1     2.147217
       7B2     2.294599     7B1     2.328953    15A1     2.620397
       8B2     2.990644     8B1     2.990805    16A1     3.007596
       3A2     3.008246     9B2     3.136347     9B1     3.164966
      17A1     3.165152    18A1     3.272867     4A2     3.273484
      10B2     3.411748    10B1     3.442932    19A1     3.519686
      11B2     4.003167    11B1     4.024409    20A1     4.031397
      21A1     5.046937    12B2     5.448273    12B1     5.448280
       5A2     5.486343    22A1     5.486482    13B2     5.704445
      13B1     5.721771    23A1     6.081363     6A2     6.534404
      24A1     6.534473    14B2     6.811878    14B1     6.831335
      25A1     7.376082    26A1     8.540594

    Final Occupation by Irrep:
             A1    A2    B1    B2
    DOCC [     5,    0,    1,    1 ]
    SOCC [     0,    0,    1,    0 ]
    NA   [     5,    0,    2,    1 ]
    NB   [     5,    0,    1,    1 ]

  @DF-UKS Final Energy:  -113.19727264253504

   => Energetics <=

    Nuclear Repulsion Energy =             15.8329532744949297
    One-Electron Energy =                -190.4165346305910020
    Two-Electron Energy =                  72.6837516322976853
    DFT Exchange-Correlation Energy =     -11.2974429187366656
    Empirical Dispersion Energy =           0.0000000000000000
    VV10 Nonlocal Energy =                  0.0000000000000000
    Total Energy =                       -113.1972726425350402

  UHF NO Occupations:
  HONO-2 :    5 A1 1.9989490
  HONO-1 :    1 B2 1.9981538
  HONO-0 :    2 B1 1.0000000
  LUNO+0 :    2 B2 0.0018462
  LUNO+1 :    6 A1 0.0010510
  LUNO+2 :    3 B1 0.0009498
  LUNO+3 :    7 A1 0.0000865

Computation Completed

Properties will be evaluated at   0.000000,   0.000000,   0.000000 [a0]

Properties computed using the B3LYP density matrix

 Multipole Moments:

 ------------------------------------------------------------------------------------
     Multipole            Electronic (a.u.)      Nuclear  (a.u.)        Total (a.u.)
 ------------------------------------------------------------------------------------

 L = 1.  Multiply by 2.5417464519 to convert [e a0] to [Debye]
 Dipole X            :          0.0000000            0.0000000            0.0000000
 Dipole Y            :          0.0000000            0.0000000            0.0000000
 Dipole Z            :         -0.2266780           -0.0033043           -0.2299822
 Magnitude           :                                                    0.2299822

 L = 2.  Multiply by 1.3450342976 to convert [e a0^2] to [Debye ang]
 Quadrupole XX       :        -11.2324129            0.0000000          -11.2324129
 Quadrupole XY       :          0.0000000            0.0000000            0.0000000
 Quadrupole XZ       :          0.0000000            0.0000000            0.0000000
 Quadrupole YY       :         -9.8833127            0.0000000           -9.8833127
 Quadrupole YZ       :          0.0000000            0.0000000            0.0000000
 Quadrupole ZZ       :        -45.6094112           31.5116995          -14.0977116
 Traceless XX        :         11.0092993          -10.5038998            0.5053995
 Traceless YY        :         12.3583996          -10.5038998            1.8544997
 Traceless ZZ        :        -23.3676989           21.0077997           -2.3598992

 ------------------------------------------------------------------------------------
  ==> Computing MBIS Charges <==

  Electron Count from Grid (Expected Number): 15.00000 (15.00000)
  Difference: -0.00000

  MBIS Charges: (a.u.)
   Center  Symbol  Z      Pop.       Charge
      1       O    8    8.575268   -0.575268
      2       C    6    6.424731   -0.424731

  MBIS Dipoles: [e a0]
   Center  Symbol  Z        X           Y           Z
      1       O    8   -0.000000   -0.000000    0.044094
      2       C    6   -0.000000    0.000000   -0.285954

  MBIS Quadrupoles: [e a0^2]
   Center  Symbol  Z      XX        XY        XZ        YY        YZ        ZZ
      1       O    8   -4.7678   -0.0000    0.0000   -4.5590    0.0000   -4.5805
      2       C    6   -6.4646    0.0000    0.0000   -5.3243    0.0000   -6.1662

  MBIS Octupoles: [e a0^3]
   Center  Symbol  Z      XXX       XXY       XXZ       XYY       XYZ       XZZ       YYY       YYZ       YZZ       ZZZ
      1       O    8   -0.0000   -0.0000    0.0363   -0.0000    0.0000   -0.0000    0.0000    0.0315    0.0000   -0.1025
      2       C    6   -0.0000   -0.0000   -0.4893   -0.0000    0.0000   -0.0000    0.0000   -0.0413    0.0000   -0.0326

  MBIS Radial Moments:
   Center  Symbol  Z      [a0^2]      [a0^3]      [a0^4]
      1       O    8   13.907313   27.956216   67.052337
      2       C    6   17.955102   48.467414   153.960082

  MBIS Valence Widths: [a0]
   Center  Symbol  Z     Width
      1       O    8    0.410607
      2       C    6    0.568541

*** tstop() called on Mac.lan at Sun Aug 10 17:43:40 2025
Module time:
	user time   =       3.42 seconds =       0.06 minutes
	system time =       2.23 seconds =       0.04 minutes
	total time  =          0 seconds =       0.00 minutes
Total time:
	user time   =      22.61 seconds =       0.38 minutes
	system time =       4.67 seconds =       0.08 minutes
	total time  =          2 seconds =       0.03 minutes

    Psi4 stopped on: Sunday, 10 August 2025 05:43PM
    Psi4 wall time for execution: 0:00:02.64

*** Psi4 exiting successfully. Buy a developer a beer!
