                               Psi4 1.9.1 release

  ==> Input File <==

--------------------------------------------------------------------------
molecule {
-1 2
C           0.000000           0.000000           0.000000
C           0.000000           0.000000           1.530897
}

set {
basis              cc-pvtz
reference          uks
maxiter            500
DAMPING_PERCENTAGE 1
E_CONVERGENCE      1.0E-8
D_CONVERGENCE      1.0E-8
DIIS_MAX_VECS      400
MBIS_MAXITER       8000
guess              read
}

E, wfn = energy('b3lyp', restart_file='last_wfn', return_wfn=True)
properties('b3lyp','MBIS_CHARGES', wfn=wfn)
wfn.to_file('last_wfn')
--------------------------------------------------------------------------

    Molecular point group: d2h
  Charge       = -1
  Multiplicity = 2
  Basis Set: CC-PVTZ
    Blend: CC-PVTZ
  Basis Set: (CC-PVTZ AUX)
    Blend: CC-PVTZ-JKFIT
  @DF-UKS Final Energy:   -75.99635474475718
    Total Energy =                        -75.9963547447571841
 Dipole X            :          0.0000000            0.0000000            0.0000000
 Dipole Y            :          0.0000000            0.0000000            0.0000000
 Dipole Z            :          0.0000000            0.0000000            0.0000000
 Magnitude           :                                                    0.0000000
    Molecular point group: d2h

    Geometry (in Angstrom), charge = -1, multiplicity = 2:

       Center              X                  Y                   Z               Mass
    ------------   -----------------  -----------------  -----------------  -----------------
         C            0.000000000000     0.000000000000    -0.765448500000    12.000000000000
         C            0.000000000000     0.000000000000     0.765448500000    12.000000000000

  Charge       = -1
  Multiplicity = 2
  Basis Set: CC-PVTZ
    Blend: CC-PVTZ
  Basis Set: (CC-PVTZ AUX)
    Blend: CC-PVTZ-JKFIT

    Orbital Energies [Eh]
    ---------------------

    Alpha Occupied:

       1Ag    -9.978516     1B1u   -9.978203     2Ag    -0.414000
       2B1u   -0.171038     3Ag    -0.042955     1B2u    0.007504
       1B3u    0.007504

    Alpha Virtual:

       1B3g    0.223694     1B2g    0.223694     3B1u    0.375393
       4Ag     0.513075     2B2u    0.539044     2B3u    0.539044
       2B3g    0.604003     2B2g    0.604003     5Ag     0.608773
       4B1u    0.613843     1B1g    0.860594     6Ag     0.860594
       5B1u    0.864263     3B2u    0.951486     3B3u    0.951486
       1Au     1.091761     6B1u    1.091761     3B3g    1.364596
       3B2g    1.364596     7Ag     1.383938     7B1u    1.392759
       4B2u    2.204137     4B3u    2.204137     8Ag     2.285052
       4B3g    2.367507     4B2g    2.367507     2B1g    2.700828
       9Ag     2.700828     5B2u    2.713188     5B3u    2.713188
       8B1u    2.785269    10Ag     2.843663     6B2u    2.880209
       6B3u    2.880209     5B3g    3.068193     5B2g    3.068193
       3B1g    3.218583    11Ag     3.218584     9B1u    3.237940
       2Au     3.282360    10B1u    3.282361     6B3g    3.364612
       6B2g    3.364612     3Au     3.488370    11B1u    3.488371
       7B2u    3.503920     7B3u    3.503920    12B1u    3.850617
      12Ag     4.112662    13Ag     4.164728     7B3g    4.279202
       7B2g    4.279202    13B1u    7.890036

    Beta Occupied:

       1Ag    -9.970672     1B1u   -9.970470     2Ag    -0.382691
       2B1u   -0.115732     1B2u    0.014929     1B3u    0.014929

    Beta Virtual:

       3Ag     0.088973     1B3g    0.234796     1B2g    0.234796
       3B1u    0.385674     4Ag     0.540879     2B2u    0.543050
       2B3u    0.543050     2B3g    0.608516     2B2g    0.608516
       5Ag     0.624465     4B1u    0.669341     1B1g    0.861983
       6Ag     0.861983     5B1u    0.873651     3B2u    0.975572
       3B3u    0.975572     1Au     1.095358     6B1u    1.095358
       3B3g    1.385439     3B2g    1.385439     7Ag     1.415340
       7B1u    1.427295     4B2u    2.211908     4B3u    2.211908
       8Ag     2.322039     4B3g    2.371849     4B2g    2.371849
       2B1g    2.720336     9Ag     2.720336     5B2u    2.742851
       5B3u    2.742851     8B1u    2.818573     6B2u    2.880892
       6B3u    2.880892    10Ag     2.896583     5B3g    3.068579
       5B2g    3.068579     3B1g    3.222646    11Ag     3.222647
       9B1u    3.280573     2Au     3.282560    10B1u    3.282561
       6B3g    3.406450     6B2g    3.406450     3Au     3.509388
      11B1u    3.509390     7B2u    3.543843     7B3u    3.543843
      12B1u    3.899287    12Ag     4.164184    13Ag     4.176821
       7B3g    4.308705     7B2g    4.308705    13B1u    7.908435

    Final Occupation by Irrep:
             Ag   B1g   B2g   B3g    Au   B1u   B2u   B3u
    DOCC [     2,    0,    0,    0,    0,    2,    1,    1 ]
    SOCC [     1,    0,    0,    0,    0,    0,    0,    0 ]
    NA   [     3,    0,    0,    0,    0,    2,    1,    1 ]
    NB   [     2,    0,    0,    0,    0,    2,    1,    1 ]

  @DF-UKS Final Energy:   -75.99635474491458

   => Energetics <=

    Nuclear Repulsion Energy =             12.4439329256769149
    One-Electron Energy =                -129.6518911411069155
    Two-Electron Energy =                  49.8749218890423194
    DFT Exchange-Correlation Energy =      -8.6633184185269148
    Empirical Dispersion Energy =           0.0000000000000000
    VV10 Nonlocal Energy =                  0.0000000000000000
    Total Energy =                        -75.9963547449145977

  UHF NO Occupations:
  HONO-2 :    2 Ag 1.9996335
  HONO-1 :    2B1u 1.9977098
  HONO-0 :    3 Ag 1.0000000
  LUNO+0 :    3B1u 0.0022902
  LUNO+1 :    4 Ag 0.0003665
  LUNO+2 :    2B2u 0.0001103
  LUNO+3 :    2B3u 0.0001103

Computation Completed

Properties will be evaluated at   0.000000,   0.000000,   0.000000 [a0]

Properties computed using the B3LYP density matrix

 Multipole Moments:

 ------------------------------------------------------------------------------------
     Multipole            Electronic (a.u.)      Nuclear  (a.u.)        Total (a.u.)
 ------------------------------------------------------------------------------------

 L = 1.  Multiply by 2.5417464519 to convert [e a0] to [Debye]
 Dipole X            :          0.0000000            0.0000000            0.0000000
 Dipole Y            :          0.0000000            0.0000000            0.0000000
 Dipole Z            :          0.0000000            0.0000000            0.0000000
 Magnitude           :                                                    0.0000000

 L = 2.  Multiply by 1.3450342976 to convert [e a0^2] to [Debye ang]
 Quadrupole XX       :        -12.2293158            0.0000000          -12.2293158
 Quadrupole XY       :          0.0000000            0.0000000            0.0000000
 Quadrupole XZ       :          0.0000000            0.0000000            0.0000000
 Quadrupole YY       :        -12.2293158            0.0000000          -12.2293158
 Quadrupole YZ       :          0.0000000            0.0000000            0.0000000
 Quadrupole ZZ       :        -38.7886641           25.1079314          -13.6807328
 Traceless XX        :          8.8531161           -8.3693105            0.4838057
 Traceless YY        :          8.8531161           -8.3693105            0.4838057
 Traceless ZZ        :        -17.7062322           16.7386209           -0.9676113

 ------------------------------------------------------------------------------------
  ==> Computing MBIS Charges <==

  Electron Count from Grid (Expected Number): 13.00000 (13.00000)
  Difference:  0.00000

  MBIS Charges: (a.u.)
   Center  Symbol  Z      Pop.       Charge
      1       C    6    6.500000   -0.500000
      2       C    6    6.500000   -0.500000

  MBIS Dipoles: [e a0]
   Center  Symbol  Z        X           Y           Z
      1       C    6   -0.000000   -0.000000   -0.119332
      2       C    6   -0.000000    0.000000    0.119332

  MBIS Quadrupoles: [e a0^2]
   Center  Symbol  Z      XX        XY        XZ        YY        YZ        ZZ
      1       C    6   -6.1147    0.0000   -0.0000   -6.1147   -0.0000   -6.1394
      2       C    6   -6.1147    0.0000    0.0000   -6.1147    0.0000   -6.1394

  MBIS Octupoles: [e a0^3]
   Center  Symbol  Z      XXX       XXY       XXZ       XYY       XYZ       XZZ       YYY       YYZ       YZZ       ZZZ
      1       C    6   -0.0000   -0.0000   -0.4468   -0.0000    0.0000   -0.0000    0.0000   -0.4468    0.0000   -0.9421
      2       C    6   -0.0000   -0.0000    0.4468   -0.0000   -0.0000   -0.0000    0.0000    0.4468    0.0000    0.9421

  MBIS Radial Moments:
   Center  Symbol  Z      [a0^2]      [a0^3]      [a0^4]
      1       C    6   18.368742   49.938445   160.390398
      2       C    6   18.368742   49.938445   160.390398

  MBIS Valence Widths: [a0]
   Center  Symbol  Z     Width
      1       C    6    0.569932
      2       C    6    0.569932

*** tstop() called on Mac.lan at Sun Aug 10 17:31:23 2025
Module time:
	user time   =       5.12 seconds =       0.09 minutes
	system time =       2.12 seconds =       0.04 minutes
	total time  =          0 seconds =       0.00 minutes
Total time:
	user time   =      40.57 seconds =       0.68 minutes
	system time =       4.74 seconds =       0.08 minutes
	total time  =          4 seconds =       0.07 minutes

    Psi4 stopped on: Sunday, 10 August 2025 05:31PM
    Psi4 wall time for execution: 0:00:04.54

*** Psi4 exiting successfully. Buy a developer a beer!
