                               Psi4 1.9.1 release

  ==> Input File <==

--------------------------------------------------------------------------
molecule {
-1 3
C           0.000000           0.000000           0.000000
H           0.000000           0.000000           1.132512
}

set {
basis              cc-pvtz
reference          uks
maxiter            500
DAMPING_PERCENTAGE 1
E_CONVERGENCE      1.0E-8
D_CONVERGENCE      1.0E-8
DIIS_MAX_VECS      400
MBIS_MAXITER       8000
guess              read
}

E, wfn = energy('b3lyp', restart_file='last_wfn', return_wfn=True)
properties('b3lyp','MBIS_CHARGES', wfn=wfn)
wfn.to_file('last_wfn')
--------------------------------------------------------------------------

    Molecular point group: c2v
  Charge       = -1
  Multiplicity = 3
  Basis Set: CC-PVTZ
    Blend: CC-PVTZ
  Basis Set: (CC-PVTZ AUX)
    Blend: CC-PVTZ-JKFIT
  @DF-UKS Final Energy:   -38.52706425268380
    Total Energy =                        -38.5270642526838003
 Dipole X            :          0.0000000            0.0000000            0.0000000
 Dipole Y            :          0.0000000            0.0000000            0.0000000
 Dipole Z            :         -0.5557862            0.9794370            0.4236508
 Magnitude           :                                                    0.4236508
    Molecular point group: c2v

    Geometry (in Angstrom), charge = -1, multiplicity = 3:

       Center              X                  Y                   Z               Mass
    ------------   -----------------  -----------------  -----------------  -----------------
         C            0.000000000000     0.000000000000    -0.087745179542    12.000000000000
         H            0.000000000000     0.000000000000     1.044766820458     1.007825032230

  Charge       = -1
  Multiplicity = 3
  Basis Set: CC-PVTZ
    Blend: CC-PVTZ
  Basis Set: (CC-PVTZ AUX)
    Blend: CC-PVTZ-JKFIT

    Orbital Energies [Eh]
    ---------------------

    Alpha Occupied:

       1A1    -9.875408     2A1    -0.305468     3A1     0.010396
       1B1     0.087131     1B2     0.087131

    Alpha Virtual:

       4A1     0.294146     5A1     0.541608     2B2     0.574755
       2B1     0.574755     6A1     0.644899     7A1     0.714567
       3B1     0.876965     3B2     0.876965     8A1     0.965593
       1A2     0.965593     9A1     1.247870     4B1     1.318309
       4B2     1.318309    10A1     1.671892     5B2     2.291574
       5B1     2.291574    11A1     2.388797    12A1     2.542381
      13A1     2.870523     2A2     2.870523     6B1     2.963841
       6B2     2.963841     7B1     2.994239     7B2     2.994239
      14A1     3.239310     3A2     3.264843    15A1     3.264843
       8B1     3.405305     8B2     3.405305    16A1     3.551649
      17A1     3.872132     4A2     3.872132     9B1     4.111703
       9B2     4.111703    18A1     4.761146    10B1     4.981470
      10B2     4.981470    19A1     5.036829    20A1     8.264839

    Beta Occupied:

       1A1    -9.852151     2A1    -0.235340     3A1     0.045545

    Beta Virtual:

       1B1     0.243446     1B2     0.243446     4A1     0.301344
       5A1     0.558142     2B2     0.645658     2B1     0.645658
       6A1     0.672836     7A1     0.744232     3B1     0.905782
       3B2     0.905782     1A2     1.042086     8A1     1.042086
       9A1     1.271335     4B1     1.342256     4B2     1.342256
      10A1     1.693051     5B2     2.371123     5B1     2.371123
      11A1     2.405512    12A1     2.573082    13A1     2.919521
       2A2     2.919521     6B1     3.003758     6B2     3.003758
       7B1     3.089829     7B2     3.089829    14A1     3.273725
      15A1     3.382612     3A2     3.382613     8B1     3.453713
       8B2     3.453713    16A1     3.576931    17A1     3.892454
       4A2     3.892455     9B1     4.113066     9B2     4.113066
      18A1     4.775192    10B1     5.005265    10B2     5.005265
      19A1     5.047102    20A1     8.293649

    Final Occupation by Irrep:
             A1    A2    B1    B2
    DOCC [     3,    0,    0,    0 ]
    SOCC [     0,    0,    1,    1 ]
    NA   [     3,    0,    1,    1 ]
    NB   [     3,    0,    0,    0 ]

  @DF-UKS Final Energy:   -38.52706425282038

   => Energetics <=

    Nuclear Repulsion Energy =              2.8035581645227601
    One-Electron Energy =                 -59.1877269538586503
    Two-Electron Energy =                  22.6225675893138884
    DFT Exchange-Correlation Energy =      -4.7654630527983777
    Empirical Dispersion Energy =           0.0000000000000000
    VV10 Nonlocal Energy =                  0.0000000000000000
    Total Energy =                        -38.5270642528203808

  UHF NO Occupations:
  HONO-2 :    3 A1 1.9976391
  HONO-1 :    1 B2 1.0000000
  HONO-0 :    1 B1 1.0000000
  LUNO+0 :    4 A1 0.0023609
  LUNO+1 :    5 A1 0.0003943
  LUNO+2 :    6 A1 0.0000011
  LUNO+3 :    7 A1 0.0000000

Computation Completed

Properties will be evaluated at   0.000000,   0.000000,   0.000000 [a0]

Properties computed using the B3LYP density matrix

 Multipole Moments:

 ------------------------------------------------------------------------------------
     Multipole            Electronic (a.u.)      Nuclear  (a.u.)        Total (a.u.)
 ------------------------------------------------------------------------------------

 L = 1.  Multiply by 2.5417464519 to convert [e a0] to [Debye]
 Dipole X            :          0.0000000            0.0000000            0.0000000
 Dipole Y            :          0.0000000            0.0000000            0.0000000
 Dipole Z            :         -0.5557862            0.9794370            0.4236508
 Magnitude           :                                                    0.4236508

 L = 2.  Multiply by 1.3450342976 to convert [e a0^2] to [Debye ang]
 Quadrupole XX       :         -8.0034436            0.0000000           -8.0034436
 Quadrupole XY       :          0.0000000            0.0000000            0.0000000
 Quadrupole XZ       :          0.0000000            0.0000000            0.0000000
 Quadrupole YY       :         -8.0034436            0.0000000           -8.0034436
 Quadrupole YZ       :          0.0000000            0.0000000            0.0000000
 Quadrupole ZZ       :        -12.6856781            4.0629183           -8.6227598
 Traceless XX        :          1.5607449           -1.3543061            0.2064387
 Traceless YY        :          1.5607449           -1.3543061            0.2064387
 Traceless ZZ        :         -3.1214897            2.7086122           -0.4128775

 ------------------------------------------------------------------------------------
  ==> Computing MBIS Charges <==

  Electron Count from Grid (Expected Number):  8.00000 ( 8.00000)
  Difference: -0.00000

  MBIS Charges: (a.u.)
   Center  Symbol  Z      Pop.       Charge
      1       C    6    7.010415   -1.010415
      2       H    1    0.989585    0.010415

  MBIS Dipoles: [e a0]
   Center  Symbol  Z        X           Y           Z
      1       C    6   -0.000000   -0.000000    0.233485
      2       H    1   -0.000000   -0.000000    0.002061

  MBIS Quadrupoles: [e a0^2]
   Center  Symbol  Z      XX        XY        XZ        YY        YZ        ZZ
      1       C    6   -7.2793    0.0000   -0.0000   -7.2793   -0.0000   -7.7753
      2       H    1   -0.7242    0.0000   -0.0000   -0.7242    0.0000   -0.7910

  MBIS Octupoles: [e a0^3]
   Center  Symbol  Z      XXX       XXY       XXZ       XYY       XYZ       XZZ       YYY       YYZ       YZZ       ZZZ
      1       C    6    0.0000    0.0000    0.3062   -0.0000   -0.0000   -0.0000    0.0000    0.3062    0.0000   -0.6721
      2       H    1   -0.0000    0.0000   -0.0474   -0.0000   -0.0000   -0.0000    0.0000   -0.0474   -0.0000   -0.1529

  MBIS Radial Moments:
   Center  Symbol  Z      [a0^2]      [a0^3]      [a0^4]
      1       C    6   22.333834   63.974686   215.888576
      2       H    1    2.239339    4.916158   12.930122

  MBIS Valence Widths: [a0]
   Center  Symbol  Z     Width
      1       C    6    0.597551
      2       H    1    0.432304

*** tstop() called on Mac.lan at Sun Aug 10 17:35:49 2025
Module time:
	user time   =       2.80 seconds =       0.05 minutes
	system time =       2.29 seconds =       0.04 minutes
	total time  =          0 seconds =       0.00 minutes
Total time:
	user time   =      12.22 seconds =       0.20 minutes
	system time =       4.50 seconds =       0.07 minutes
	total time  =          1 seconds =       0.02 minutes

    Psi4 stopped on: Sunday, 10 August 2025 05:35PM
    Psi4 wall time for execution: 0:00:01.62

*** Psi4 exiting successfully. Buy a developer a beer!
