                               Psi4 1.9.1 release

  ==> Input File <==

--------------------------------------------------------------------------
molecule {
-1 3
C           0.000000           0.000000           0.000000
H           0.000000           0.000000           0.619122
}

set {
basis              cc-pvtz
reference          uks
maxiter            500
DAMPING_PERCENTAGE 1
E_CONVERGENCE      1.0E-8
D_CONVERGENCE      1.0E-8
DIIS_MAX_VECS      400
MBIS_MAXITER       8000
guess              read
}

E, wfn = energy('b3lyp', restart_file='last_wfn', return_wfn=True)
properties('b3lyp','MBIS_CHARGES', wfn=wfn)
wfn.to_file('last_wfn')
--------------------------------------------------------------------------

    Molecular point group: c2v
  Charge       = -1
  Multiplicity = 3
  Basis Set: CC-PVTZ
    Blend: CC-PVTZ
  Basis Set: (CC-PVTZ AUX)
    Blend: CC-PVTZ-JKFIT
  @DF-UKS Final Energy:   -38.10560556482924
    Total Energy =                        -38.1056055648292400
 Dipole X            :          0.0000000            0.0000000            0.0000000
 Dipole Y            :          0.0000000            0.0000000            0.0000000
 Dipole Z            :          0.4381490            0.5354389            0.9735879
 Magnitude           :                                                    0.9735879
    Molecular point group: c2v

    Geometry (in Angstrom), charge = -1, multiplicity = 3:

       Center              X                  Y                   Z               Mass
    ------------   -----------------  -----------------  -----------------  -----------------
         C            0.000000000000     0.000000000000    -0.047968561082    12.000000000000
         H            0.000000000000     0.000000000000     0.571153438918     1.007825032230

  Charge       = -1
  Multiplicity = 3
  Basis Set: CC-PVTZ
    Blend: CC-PVTZ
  Basis Set: (CC-PVTZ AUX)
    Blend: CC-PVTZ-JKFIT

    Orbital Energies [Eh]
    ---------------------

    Alpha Occupied:

       1A1    -9.825063     2A1    -0.427730     3A1     0.022438
       1B2     0.092784     1B1     0.092784

    Alpha Virtual:

       4A1     0.296533     5A1     0.534655     2B2     0.573592
       2B1     0.573592     6A1     0.708662     3B2     0.968037
       3B1     0.968037     7A1     0.972353     1A2     0.972353
       8A1     0.994787     9A1     1.333715     4B2     1.422813
       4B1     1.422813    10A1     2.162399     5B2     2.236780
       5B1     2.236780    11A1     2.470397    12A1     2.773567
      13A1     2.987159     2A2     2.987159     6B1     3.007138
       6B2     3.007138     7B2     3.114017     7B1     3.114017
      14A1     3.220097     3A2     3.220097     8B2     3.438912
       8B1     3.438912    15A1     3.459862    16A1     4.420779
      17A1     4.613118     4A2     4.613118     9B2     4.624839
       9B1     4.624839    18A1     6.066381    10B2     6.470631
      10B1     6.470631    19A1     7.980991    20A1    16.764052

    Beta Occupied:

       1A1    -9.801929     2A1    -0.362594     3A1     0.067996

    Beta Virtual:

       1B2     0.249099     1B1     0.249099     4A1     0.302906
       5A1     0.550527     2B2     0.642658     2B1     0.642658
       6A1     0.746598     3B2     1.006947     3B1     1.006947
       7A1     1.019145     1A2     1.048791     8A1     1.048791
       9A1     1.349281     4B2     1.442373     4B1     1.442373
      10A1     2.202417     5B2     2.313141     5B1     2.313141
      11A1     2.491476    12A1     2.834723     2A2     3.046291
      13A1     3.046291     6B1     3.102059     6B2     3.102059
       7B2     3.161683     7B1     3.161683     3A2     3.324697
      14A1     3.324697     8B2     3.476379     8B1     3.476379
      15A1     3.490041    16A1     4.443849     9B2     4.651845
       9B1     4.651845     4A2     4.657996    17A1     4.657996
      18A1     6.094234    10B2     6.504960    10B1     6.504960
      19A1     7.989767    20A1    16.791008

    Final Occupation by Irrep:
             A1    A2    B1    B2
    DOCC [     3,    0,    0,    0 ]
    SOCC [     0,    0,    1,    1 ]
    NA   [     3,    0,    1,    1 ]
    NB   [     3,    0,    0,    0 ]

  @DF-UKS Final Energy:   -38.10560556488662

   => Energetics <=

    Nuclear Repulsion Energy =              5.1283321607373020
    One-Electron Energy =                 -62.7401211361652003
    Two-Electron Energy =                  24.4852847280630250
    DFT Exchange-Correlation Energy =      -4.9791013175217440
    Empirical Dispersion Energy =           0.0000000000000000
    VV10 Nonlocal Energy =                  0.0000000000000000
    Total Energy =                        -38.1056055648866234

  UHF NO Occupations:
  HONO-2 :    3 A1 1.9975557
  HONO-1 :    1 B1 1.0000000
  HONO-0 :    1 B2 1.0000000
  LUNO+0 :    4 A1 0.0024443
  LUNO+1 :    5 A1 0.0001754
  LUNO+2 :    6 A1 0.0000012
  LUNO+3 :    7 A1 0.0000000

Computation Completed

Properties will be evaluated at   0.000000,   0.000000,   0.000000 [a0]

Properties computed using the B3LYP density matrix

 Multipole Moments:

 ------------------------------------------------------------------------------------
     Multipole            Electronic (a.u.)      Nuclear  (a.u.)        Total (a.u.)
 ------------------------------------------------------------------------------------

 L = 1.  Multiply by 2.5417464519 to convert [e a0] to [Debye]
 Dipole X            :          0.0000000            0.0000000            0.0000000
 Dipole Y            :          0.0000000            0.0000000            0.0000000
 Dipole Z            :          0.4381490            0.5354389            0.9735879
 Magnitude           :                                                    0.9735879

 L = 2.  Multiply by 1.3450342976 to convert [e a0^2] to [Debye ang]
 Quadrupole XX       :         -7.6599349            0.0000000           -7.6599349
 Quadrupole XY       :          0.0000000            0.0000000            0.0000000
 Quadrupole XZ       :          0.0000000            0.0000000            0.0000000
 Quadrupole YY       :         -7.6599349            0.0000000           -7.6599349
 Quadrupole YZ       :          0.0000000            0.0000000            0.0000000
 Quadrupole ZZ       :         -8.8710505            1.2142411           -7.6568093
 Traceless XX        :          0.4037052           -0.4047470           -0.0010418
 Traceless YY        :          0.4037052           -0.4047470           -0.0010418
 Traceless ZZ        :         -0.8074104            0.8094941            0.0020837

 ------------------------------------------------------------------------------------
  ==> Computing MBIS Charges <==

  Electron Count from Grid (Expected Number):  8.00000 ( 8.00000)
  Difference: -0.00000

  MBIS Charges: (a.u.)
   Center  Symbol  Z      Pop.       Charge
      1       C    6    7.176362   -1.176362
      2       H    1    0.823638    0.176362

  MBIS Dipoles: [e a0]
   Center  Symbol  Z        X           Y           Z
      1       C    6   -0.000000    0.000000    0.654918
      2       H    1   -0.000000   -0.000000    0.021684

  MBIS Quadrupoles: [e a0^2]
   Center  Symbol  Z      XX        XY        XZ        YY        YZ        ZZ
      1       C    6   -7.4370   -0.0000    0.0000   -7.4370    0.0000   -7.5646
      2       H    1   -0.2230    0.0000    0.0000   -0.2230   -0.0000   -0.2161

  MBIS Octupoles: [e a0^3]
   Center  Symbol  Z      XXX       XXY       XXZ       XYY       XYZ       XZZ       YYY       YYZ       YZZ       ZZZ
      1       C    6   -0.0000    0.0000    1.5520   -0.0000   -0.0000   -0.0000    0.0000    1.5520    0.0000    4.4979
      2       H    1    0.0000    0.0000    0.0062   -0.0000   -0.0000   -0.0000   -0.0000    0.0062    0.0000    0.0145

  MBIS Radial Moments:
   Center  Symbol  Z      [a0^2]      [a0^3]      [a0^4]
      1       C    6   22.438544   63.301060   208.721425
      2       H    1    0.661996    0.838129    1.276600

  MBIS Valence Widths: [a0]
   Center  Symbol  Z     Width
      1       C    6    0.589611
      2       H    1    0.262370

*** tstop() called on Mac.lan at Sun Aug 10 17:35:22 2025
Module time:
	user time   =       2.83 seconds =       0.05 minutes
	system time =       2.29 seconds =       0.04 minutes
	total time  =          0 seconds =       0.00 minutes
Total time:
	user time   =      13.06 seconds =       0.22 minutes
	system time =       4.55 seconds =       0.08 minutes
	total time  =          2 seconds =       0.03 minutes

    Psi4 stopped on: Sunday, 10 August 2025 05:35PM
    Psi4 wall time for execution: 0:00:01.71

*** Psi4 exiting successfully. Buy a developer a beer!
