                               Psi4 1.9.1 release

  ==> Input File <==

--------------------------------------------------------------------------
molecule {
-1 2
C           0.000000           0.000000           0.000000
C           0.000000           0.000000           1.294980
}

set {
basis              cc-pvtz
reference          uks
maxiter            500
DAMPING_PERCENTAGE 1
E_CONVERGENCE      1.0E-8
D_CONVERGENCE      1.0E-8
DIIS_MAX_VECS      400
MBIS_MAXITER       8000
guess              read
}

E, wfn = energy('b3lyp', restart_file='last_wfn', return_wfn=True)
properties('b3lyp','MBIS_CHARGES', wfn=wfn)
wfn.to_file('last_wfn')
--------------------------------------------------------------------------

    Molecular point group: d2h
  Charge       = -1
  Multiplicity = 2
  Basis Set: CC-PVTZ
    Blend: CC-PVTZ
  Basis Set: (CC-PVTZ AUX)
    Blend: CC-PVTZ-JKFIT
  @DF-UKS Final Energy:   -76.05692725266232
    Total Energy =                        -76.0569272526623195
 Dipole X            :          0.0000000            0.0000000            0.0000000
 Dipole Y            :          0.0000000            0.0000000            0.0000000
 Dipole Z            :          0.0000000            0.0000000            0.0000000
 Magnitude           :                                                    0.0000000
    Molecular point group: d2h

    Geometry (in Angstrom), charge = -1, multiplicity = 2:

       Center              X                  Y                   Z               Mass
    ------------   -----------------  -----------------  -----------------  -----------------
         C            0.000000000000     0.000000000000    -0.647490000000    12.000000000000
         C            0.000000000000     0.000000000000     0.647490000000    12.000000000000

  Charge       = -1
  Multiplicity = 2
  Basis Set: CC-PVTZ
    Blend: CC-PVTZ
  Basis Set: (CC-PVTZ AUX)
    Blend: CC-PVTZ-JKFIT

    Orbital Energies [Eh]
    ---------------------

    Alpha Occupied:

       1Ag    -9.926629     1B1u   -9.925357     2Ag    -0.461425
       2B1u   -0.128951     3Ag    -0.038533     1B3u   -0.010048
       1B2u   -0.010048

    Alpha Virtual:

       1B3g    0.280494     1B2g    0.280494     3B1u    0.392138
       4Ag     0.503553     2B2u    0.530485     2B3u    0.530485
       5Ag     0.617347     2B3g    0.629543     2B2g    0.629543
       4B1u    0.779131     1B1g    0.861724     6Ag     0.861724
       5B1u    0.890965     3B3u    1.034383     3B2u    1.034383
       6B1u    1.144559     1Au     1.144559     3B3g    1.403933
       3B2g    1.403933     7Ag     1.418467     7B1u    1.618508
       4B2u    2.237437     4B3u    2.237437     8Ag     2.348774
       4B3g    2.482343     4B2g    2.482343     8B1u    2.644463
       2B1g    2.729451     9Ag     2.729451     5B2u    2.779998
       5B3u    2.779998     6B2u    2.828408     6B3u    2.828408
      10Ag     3.006656     5B3g    3.171332     5B2g    3.171332
       3B1g    3.249222    11Ag     3.249223     6B2g    3.311807
       6B3g    3.311807     2Au     3.338710     9B1u    3.338712
      10B1u    3.519535     7B3u    3.722064     7B2u    3.722064
      11B1u    3.758987     3Au     3.758987    12Ag     3.948892
      12B1u    4.218913     7B2g    4.805595     7B3g    4.805595
      13Ag     4.908402    13B1u   11.783061

    Beta Occupied:

       1Ag    -9.918176     1B1u   -9.917117     2Ag    -0.430192
       2B1u   -0.067575     1B3u   -0.001916     1B2u   -0.001916

    Beta Virtual:

       3Ag     0.093289     1B3g    0.293460     1B2g    0.293460
       3B1u    0.402492     4Ag     0.527701     2B2u    0.534744
       2B3u    0.534744     2B3g    0.635936     2B2g    0.635936
       5Ag     0.637246     4B1u    0.816444     1B1g    0.863400
       6Ag     0.863400     5B1u    0.908487     3B3u    1.058285
       3B2u    1.058285     1Au     1.150366     6B1u    1.150366
       3B3g    1.423408     3B2g    1.423408     7Ag     1.451595
       7B1u    1.652355     4B2u    2.243976     4B3u    2.243976
       8Ag     2.379009     4B3g    2.487560     4B2g    2.487560
       8B1u    2.681394     2B1g    2.743897     9Ag     2.743897
       5B2u    2.812714     5B3u    2.812714     6B2u    2.830095
       6B3u    2.830095    10Ag     3.066665     5B3g    3.173514
       5B2g    3.173514     3B1g    3.259035    11Ag     3.259037
       2Au     3.346736     9B1u    3.346738     6B2g    3.357722
       6B3g    3.357722    10B1u    3.557512     7B3u    3.760648
       7B2u    3.760648    11B1u    3.775591     3Au     3.775591
      12Ag     3.977473    12B1u    4.267634     7B2g    4.832756
       7B3g    4.832756    13Ag     4.935846    13B1u   11.798949

    Final Occupation by Irrep:
             Ag   B1g   B2g   B3g    Au   B1u   B2u   B3u
    DOCC [     2,    0,    0,    0,    0,    2,    1,    1 ]
    SOCC [     1,    0,    0,    0,    0,    0,    0,    0 ]
    NA   [     3,    0,    0,    0,    0,    2,    1,    1 ]
    NB   [     2,    0,    0,    0,    0,    2,    1,    1 ]

  @DF-UKS Final Energy:   -76.05692725201912

   => Energetics <=

    Nuclear Repulsion Energy =             14.7109450216374036
    One-Electron Energy =                -134.3705182560302660
    Two-Electron Energy =                  52.3798185095206321
    DFT Exchange-Correlation Energy =      -8.7771725271468899
    Empirical Dispersion Energy =           0.0000000000000000
    VV10 Nonlocal Energy =                  0.0000000000000000
    Total Energy =                        -76.0569272520191220

  UHF NO Occupations:
  HONO-2 :    2 Ag 1.9997077
  HONO-1 :    2B1u 1.9984238
  HONO-0 :    3 Ag 1.0000000
  LUNO+0 :    3B1u 0.0015762
  LUNO+1 :    4 Ag 0.0002923
  LUNO+2 :    2B2u 0.0001035
  LUNO+3 :    2B3u 0.0001035

Computation Completed

Properties will be evaluated at   0.000000,   0.000000,   0.000000 [a0]

Properties computed using the B3LYP density matrix

 Multipole Moments:

 ------------------------------------------------------------------------------------
     Multipole            Electronic (a.u.)      Nuclear  (a.u.)        Total (a.u.)
 ------------------------------------------------------------------------------------

 L = 1.  Multiply by 2.5417464519 to convert [e a0] to [Debye]
 Dipole X            :          0.0000000            0.0000000            0.0000000
 Dipole Y            :          0.0000000            0.0000000            0.0000000
 Dipole Z            :          0.0000000            0.0000000            0.0000000
 Magnitude           :                                                    0.0000000

 L = 2.  Multiply by 1.3450342976 to convert [e a0^2] to [Debye ang]
 Quadrupole XX       :        -11.6069682            0.0000000          -11.6069682
 Quadrupole XY       :          0.0000000            0.0000000            0.0000000
 Quadrupole XZ       :          0.0000000            0.0000000            0.0000000
 Quadrupole YY       :        -11.6069682            0.0000000          -11.6069682
 Quadrupole YZ       :          0.0000000            0.0000000            0.0000000
 Quadrupole ZZ       :        -31.3977675           17.9657400          -13.4320275
 Traceless XX        :          6.5969331           -5.9885800            0.6083531
 Traceless YY        :          6.5969331           -5.9885800            0.6083531
 Traceless ZZ        :        -13.1938662           11.9771600           -1.2167062

 ------------------------------------------------------------------------------------
  ==> Computing MBIS Charges <==

  Electron Count from Grid (Expected Number): 13.00000 (13.00000)
  Difference: -0.00000

  MBIS Charges: (a.u.)
   Center  Symbol  Z      Pop.       Charge
      1       C    6    6.500000   -0.500000
      2       C    6    6.500000   -0.500000

  MBIS Dipoles: [e a0]
   Center  Symbol  Z        X           Y           Z
      1       C    6   -0.000000    0.000000   -0.067245
      2       C    6   -0.000000    0.000000    0.067245

  MBIS Quadrupoles: [e a0^2]
   Center  Symbol  Z      XX        XY        XZ        YY        YZ        ZZ
      1       C    6   -5.8035    0.0000   -0.0000   -5.8035   -0.0000   -6.1320
      2       C    6   -5.8035    0.0000    0.0000   -5.8035    0.0000   -6.1320

  MBIS Octupoles: [e a0^3]
   Center  Symbol  Z      XXX       XXY       XXZ       XYY       XYZ       XZZ       YYY       YYZ       YZZ       ZZZ
      1       C    6   -0.0000    0.0000   -0.1565   -0.0000    0.0000   -0.0000    0.0000   -0.1565    0.0000   -0.1225
      2       C    6   -0.0000    0.0000    0.1565    0.0000    0.0000   -0.0000    0.0000    0.1565    0.0000    0.1225

  MBIS Radial Moments:
   Center  Symbol  Z      [a0^2]      [a0^3]      [a0^4]
      1       C    6   17.738967   47.523722   150.881537
      2       C    6   17.738967   47.523722   150.881537

  MBIS Valence Widths: [a0]
   Center  Symbol  Z     Width
      1       C    6    0.558758
      2       C    6    0.558758

*** tstop() called on Mac.lan at Sun Aug 10 17:30:49 2025
Module time:
	user time   =       3.72 seconds =       0.06 minutes
	system time =       2.03 seconds =       0.03 minutes
	total time  =          0 seconds =       0.00 minutes
Total time:
	user time   =      16.63 seconds =       0.28 minutes
	system time =       4.09 seconds =       0.07 minutes
	total time  =          2 seconds =       0.03 minutes

    Psi4 stopped on: Sunday, 10 August 2025 05:30PM
    Psi4 wall time for execution: 0:00:02.02

*** Psi4 exiting successfully. Buy a developer a beer!
