                               Psi4 1.9.1 release

  ==> Input File <==

--------------------------------------------------------------------------
molecule {
-1 1
O           0.000000           0.000000           0.000000
H           0.000000           0.000000           0.681725
}

set {
basis              cc-pvtz
reference          uks
maxiter            500
DAMPING_PERCENTAGE 1
E_CONVERGENCE      1.0E-8
D_CONVERGENCE      1.0E-8
DIIS_MAX_VECS      400
MBIS_MAXITER       8000
guess              read
}

E, wfn = energy('b3lyp', restart_file='last_wfn', return_wfn=True)
properties('b3lyp','MBIS_CHARGES', wfn=wfn)
wfn.to_file('last_wfn')
--------------------------------------------------------------------------

    Molecular point group: c2v
  Charge       = -1
  Multiplicity = 1
  Basis Set: CC-PVTZ
    Blend: CC-PVTZ
  Basis Set: (CC-PVTZ AUX)
    Blend: CC-PVTZ-JKFIT
  @DF-UKS Final Energy:   -75.63594770734591
    Total Energy =                        -75.6359477073459061
 Dipole X            :          0.0000000            0.0000000            0.0000000
 Dipole Y            :          0.0000000            0.0000000            0.0000000
 Dipole Z            :          0.0104762            0.6010202            0.6114965
 Magnitude           :                                                    0.6114965
    Molecular point group: c2v

    Geometry (in Angstrom), charge = -1, multiplicity = 1:

       Center              X                  Y                   Z               Mass
    ------------   -----------------  -----------------  -----------------  -----------------
         O            0.000000000000     0.000000000000    -0.040408753775    15.994914619570
         H            0.000000000000     0.000000000000     0.641316246225     1.007825032230

  Charge       = -1
  Multiplicity = 1
  Basis Set: CC-PVTZ
    Blend: CC-PVTZ
  Basis Set: (CC-PVTZ AUX)
    Blend: CC-PVTZ-JKFIT

    Orbital Energies [Eh]
    ---------------------

    Alpha Occupied:

       1A1   -18.618758     2A1    -0.615126     3A1    -0.033001
       1B1     0.119983     1B2     0.119983

    Alpha Virtual:

       4A1     0.332535     5A1     0.811237     2B2     0.926298
       2B1     0.926298     6A1     0.956769     3B2     1.138803
       3B1     1.138803     7A1     1.186405     8A1     1.893230
       1A2     1.893230     9A1     2.066780     4B2     2.268731
       4B1     2.268731    10A1     2.365659    11A1     3.153557
      12A1     3.776999     2A2     3.776999     5B2     3.800819
       5B1     3.800819     6B2     4.149988     6B1     4.149988
      13A1     4.363081     7B2     4.848271     7B1     4.848271
      14A1     5.054462     8B2     5.591347     8B1     5.591347
      15A1     6.230579    16A1     6.308749     3A2     6.308750
      17A1     6.666421     4A2     6.666421     9B1     6.677333
       9B2     6.677333    18A1     7.950261    19A1     8.165482
      10B2     8.512545    10B1     8.512545    20A1    14.334563

    Beta Occupied:

       1A1   -18.618758     2A1    -0.615126     3A1    -0.033001
       1B1     0.119983     1B2     0.119983

    Beta Virtual:

       4A1     0.332535     5A1     0.811237     2B2     0.926298
       2B1     0.926298     6A1     0.956769     3B2     1.138803
       3B1     1.138803     7A1     1.186405     8A1     1.893230
       1A2     1.893230     9A1     2.066780     4B2     2.268731
       4B1     2.268731    10A1     2.365659    11A1     3.153557
      12A1     3.776999     2A2     3.776999     5B2     3.800819
       5B1     3.800819     6B2     4.149988     6B1     4.149988
      13A1     4.363081     7B2     4.848271     7B1     4.848271
      14A1     5.054462     8B2     5.591347     8B1     5.591347
      15A1     6.230579    16A1     6.308749     3A2     6.308750
      17A1     6.666421     4A2     6.666421     9B1     6.677333
       9B2     6.677333    18A1     7.950261    19A1     8.165482
      10B2     8.512545    10B1     8.512545    20A1    14.334563

    Final Occupation by Irrep:
             A1    A2    B1    B2
    DOCC [     3,    0,    1,    1 ]
    SOCC [     0,    0,    0,    0 ]
    NA   [     3,    0,    1,    1 ]
    NB   [     3,    0,    1,    1 ]

  @DF-UKS Final Energy:   -75.63594770761726

   => Energetics <=

    Nuclear Repulsion Energy =              6.2098612862371194
    One-Electron Energy =                -120.1675690333959494
    Two-Electron Energy =                  45.9429522995619166
    DFT Exchange-Correlation Energy =      -7.6211922600203570
    Empirical Dispersion Energy =           0.0000000000000000
    VV10 Nonlocal Energy =                  0.0000000000000000
    Total Energy =                        -75.6359477076172624

  UHF NO Occupations:
  HONO-2 :    2 A1 2.0000000
  HONO-1 :    1 B2 2.0000000
  HONO-0 :    3 A1 2.0000000
  LUNO+0 :    4 A1 0.0000000
  LUNO+1 :    5 A1 0.0000000
  LUNO+2 :    6 A1 0.0000000
  LUNO+3 :    2 B2 0.0000000

Computation Completed

Properties will be evaluated at   0.000000,   0.000000,   0.000000 [a0]

Properties computed using the B3LYP density matrix

 Multipole Moments:

 ------------------------------------------------------------------------------------
     Multipole            Electronic (a.u.)      Nuclear  (a.u.)        Total (a.u.)
 ------------------------------------------------------------------------------------

 L = 1.  Multiply by 2.5417464519 to convert [e a0] to [Debye]
 Dipole X            :          0.0000000            0.0000000            0.0000000
 Dipole Y            :          0.0000000            0.0000000            0.0000000
 Dipole Z            :          0.0104762            0.6010202            0.6114965
 Magnitude           :                                                    0.6114965

 L = 2.  Multiply by 1.3450342976 to convert [e a0^2] to [Debye ang]
 Quadrupole XX       :         -6.0446516            0.0000000           -6.0446516
 Quadrupole XY       :          0.0000000            0.0000000            0.0000000
 Quadrupole XZ       :          0.0000000            0.0000000            0.0000000
 Quadrupole YY       :         -6.0446516            0.0000000           -6.0446516
 Quadrupole YZ       :          0.0000000            0.0000000            0.0000000
 Quadrupole ZZ       :         -6.4680017            1.5153795           -4.9526222
 Traceless XX        :          0.1411167           -0.5051265           -0.3640098
 Traceless YY        :          0.1411167           -0.5051265           -0.3640098
 Traceless ZZ        :         -0.2822334            1.0102530            0.7280196

 ------------------------------------------------------------------------------------
  ==> Computing MBIS Charges <==

  Electron Count from Grid (Expected Number): 10.00000 (10.00000)
  Difference:  0.00000

  MBIS Charges: (a.u.)
   Center  Symbol  Z      Pop.       Charge
      1       O    8    9.482627   -1.482627
      2       H    1    0.517373    0.482627

  MBIS Dipoles: [e a0]
   Center  Symbol  Z        X           Y           Z
      1       O    8   -0.000000   -0.000000   -0.099849
      2       H    1   -0.000000    0.000000    0.013229

  MBIS Quadrupoles: [e a0^2]
   Center  Symbol  Z      XX        XY        XZ        YY        YZ        ZZ
      1       O    8   -5.8949    0.0000    0.0000   -5.8949   -0.0000   -5.5514
      2       H    1   -0.1497    0.0000    0.0000   -0.1497    0.0000   -0.1487

  MBIS Octupoles: [e a0^3]
   Center  Symbol  Z      XXX       XXY       XXZ       XYY       XYZ       XZZ       YYY       YYZ       YZZ       ZZZ
      1       O    8   -0.0000   -0.0000    0.0305   -0.0000    0.0000    0.0000   -0.0000    0.0305    0.0000   -0.3263
      2       H    1    0.0000    0.0000    0.0025    0.0000    0.0000    0.0000   -0.0000    0.0025    0.0000    0.0037

  MBIS Radial Moments:
   Center  Symbol  Z      [a0^2]      [a0^3]      [a0^4]
      1       O    8   17.341271   36.456249   90.083788
      2       H    1    0.448171    0.601428    0.969175

  MBIS Valence Widths: [a0]
   Center  Symbol  Z     Width
      1       O    8    0.431528
      2       H    1    0.269331

*** tstop() called on Mac.lan at Sun Aug 10 17:37:14 2025
Module time:
	user time   =       3.77 seconds =       0.06 minutes
	system time =       2.72 seconds =       0.05 minutes
	total time  =          0 seconds =       0.00 minutes
Total time:
	user time   =      12.72 seconds =       0.21 minutes
	system time =       4.91 seconds =       0.08 minutes
	total time  =          2 seconds =       0.03 minutes

    Psi4 stopped on: Sunday, 10 August 2025 05:37PM
    Psi4 wall time for execution: 0:00:01.71

*** Psi4 exiting successfully. Buy a developer a beer!
