                               Psi4 1.9.1 release

  ==> Input File <==

--------------------------------------------------------------------------
molecule {
-1 2
O           0.000000           0.000000           0.000000
O           0.000000           0.000000           0.568546
}

set {
basis              cc-pvtz
reference          uks
maxiter            500
DAMPING_PERCENTAGE 1
E_CONVERGENCE      1.0E-8
D_CONVERGENCE      1.0E-8
DIIS_MAX_VECS      400
MBIS_MAXITER       8000
guess              read
}

E, wfn = energy('b3lyp', restart_file='last_wfn', return_wfn=True)
properties('b3lyp','MBIS_CHARGES', wfn=wfn)
wfn.to_file('last_wfn')
--------------------------------------------------------------------------

    Molecular point group: d2h
  Charge       = -1
  Multiplicity = 2
  Basis Set: CC-PVTZ
    Blend: CC-PVTZ
  Basis Set: (CC-PVTZ AUX)
    Blend: CC-PVTZ-JKFIT
  @DF-UKS Final Energy:  -145.98919471943927
    Total Energy =                       -145.9891947194392401
 Dipole X            :          0.0000000            0.0000000            0.0000000
 Dipole Y            :          0.0000000            0.0000000            0.0000000
 Dipole Z            :          0.0000000            0.0000000            0.0000000
 Magnitude           :                                                    0.0000000
    Molecular point group: d2h

    Geometry (in Angstrom), charge = -1, multiplicity = 2:

       Center              X                  Y                   Z               Mass
    ------------   -----------------  -----------------  -----------------  -----------------
         O            0.000000000000     0.000000000000    -0.284273000000    15.994914619570
         O            0.000000000000     0.000000000000     0.284273000000    15.994914619570

  Charge       = -1
  Multiplicity = 2
  Basis Set: CC-PVTZ
    Blend: CC-PVTZ
  Basis Set: (CC-PVTZ AUX)
    Blend: CC-PVTZ-JKFIT

    Orbital Energies [Eh]
    ---------------------

    Alpha Occupied:

       1Ag   -19.187864     1B1u  -18.998817     2Ag    -1.541061
       1B2u   -0.830654     1B3u   -0.802326     3Ag    -0.403628
       2B1u   -0.298189     1B3g    0.437612     1B2g    0.465984

    Alpha Virtual:

       3B1u    0.592332     2B2u    0.611650     2B3u    0.633326
       4Ag     0.722293     5Ag     0.987487     2B3g    1.049088
       2B2g    1.073169     1B1g    1.415338     6Ag     1.415814
       4B1u    1.553030     3B2u    2.136129     5B1u    2.156633
       3B3u    2.164838     7Ag     2.183577     1Au     2.211567
       6B1u    2.214232     3B3g    2.583658     3B2g    2.606571
       4B2u    3.252257     4B3u    3.277476     8Ag     4.347653
       4B3g    4.667780     7B1u    4.690326     4B2g    4.695991
       5B2u    4.755454     5B3u    4.755455     2B1g    5.060868
       9Ag     5.061181     8B1u    5.326199     6B2u    5.810963
       6B3u    5.835658     2Au     5.920671     9B1u    5.920727
      10Ag     6.003220     5B3g    6.183629     5B2g    6.183639
       3B1g    6.450399    11Ag     6.450941     6B3g    6.489753
      12Ag     6.492833     6B2g    6.515461    10B1u    7.405820
       7B2u    8.336824     7B3u    8.360388     3Au     8.953296
      11B1u    8.953442     7B3g   11.295225     7B2g   11.319819
      13Ag    11.503551    12B1u   12.370316    13B1u   38.831543

    Beta Occupied:

       1Ag   -19.182402     1B1u  -18.993101     2Ag    -1.534384
       1B3u   -0.797305     1B2u   -0.793592     3Ag    -0.383048
       2B1u   -0.267320     1B2g    0.476583

    Beta Virtual:

       1B3g    0.565366     3B1u    0.605626     2B3u    0.639143
       2B2u    0.641436     4Ag     0.734383     5Ag     0.999809
       2B2g    1.081597     2B3g    1.106615     1B1g    1.430281
       6Ag     1.431058     4B1u    1.577411     3B3u    2.170183
       5B1u    2.173841     3B2u    2.177149     7Ag     2.189384
       1Au     2.245380     6B1u    2.247227     3B2g    2.612168
       3B3g    2.622395     4B2u    3.274255     4B3u    3.281117
       8Ag     4.358865     4B2g    4.703035     7B1u    4.703141
       4B3g    4.707998     5B3u    4.769334     5B2u    4.769365
       2B1g    5.072580     9Ag     5.073173     8B1u    5.344763
       6B3u    5.839233     6B2u    5.843774     2Au     5.950075
       9B1u    5.951460    10Ag     6.014868     5B2g    6.210693
       5B3g    6.210747     3B1g    6.473724    11Ag     6.474679
      12Ag     6.502039     6B2g    6.518563     6B3g    6.519733
      10B1u    7.417959     7B2u    8.361102     7B3u    8.362834
       3Au     8.974937    11B1u    8.975788     7B2g   11.324514
       7B3g   11.327808    13Ag    11.518718    12B1u   12.375984
      13B1u   38.839690

    Final Occupation by Irrep:
             Ag   B1g   B2g   B3g    Au   B1u   B2u   B3u
    DOCC [     3,    0,    1,    0,    0,    2,    1,    1 ]
    SOCC [     0,    0,    0,    1,    0,    0,    0,    0 ]
    NA   [     3,    0,    1,    1,    0,    2,    1,    1 ]
    NB   [     3,    0,    1,    0,    0,    2,    1,    1 ]

  @DF-UKS Final Energy:  -145.98919471887919

   => Energetics <=

    Nuclear Repulsion Energy =             59.5683400866068880
    One-Electron Energy =                -317.6739934591562360
    Two-Electron Energy =                 127.2213647446183558
    DFT Exchange-Correlation Energy =     -15.1049060909482229
    Empirical Dispersion Energy =           0.0000000000000000
    VV10 Nonlocal Energy =                  0.0000000000000000
    Total Energy =                       -145.9891947188791903

  UHF NO Occupations:
  HONO-2 :    3 Ag 1.9999483
  HONO-1 :    2B1u 1.9999140
  HONO-0 :    1B3g 1.0000000
  LUNO+0 :    3B1u 0.0000860
  LUNO+1 :    4 Ag 0.0000517
  LUNO+2 :    2B2u 0.0000452
  LUNO+3 :    2B2g 0.0000036

Computation Completed

Properties will be evaluated at   0.000000,   0.000000,   0.000000 [a0]

Properties computed using the B3LYP density matrix

 Multipole Moments:

 ------------------------------------------------------------------------------------
     Multipole            Electronic (a.u.)      Nuclear  (a.u.)        Total (a.u.)
 ------------------------------------------------------------------------------------

 L = 1.  Multiply by 2.5417464519 to convert [e a0] to [Debye]
 Dipole X            :          0.0000000            0.0000000            0.0000000
 Dipole Y            :          0.0000000            0.0000000            0.0000000
 Dipole Z            :          0.0000000            0.0000000            0.0000000
 Magnitude           :                                                    0.0000000

 L = 2.  Multiply by 1.3450342976 to convert [e a0^2] to [Debye ang]
 Quadrupole XX       :         -9.9888564            0.0000000           -9.9888564
 Quadrupole XY       :          0.0000000            0.0000000            0.0000000
 Quadrupole XZ       :          0.0000000            0.0000000            0.0000000
 Quadrupole YY       :         -8.3575270            0.0000000           -8.3575270
 Quadrupole YZ       :          0.0000000            0.0000000            0.0000000
 Quadrupole ZZ       :        -17.0890431            4.6173090          -12.4717340
 Traceless XX        :          1.8229524           -1.5391030            0.2838494
 Traceless YY        :          3.4542818           -1.5391030            1.9151788
 Traceless ZZ        :         -5.2772343            3.0782060           -2.1990282

 ------------------------------------------------------------------------------------
  ==> Computing MBIS Charges <==

  Electron Count from Grid (Expected Number): 17.00000 (17.00000)
  Difference: -0.00000

  MBIS Charges: (a.u.)
   Center  Symbol  Z      Pop.       Charge
      1       O    8    8.499999   -0.499999
      2       O    8    8.499999   -0.499999

  MBIS Dipoles: [e a0]
   Center  Symbol  Z        X           Y           Z
      1       O    8   -0.000000   -0.000000    0.408511
      2       O    8   -0.000000    0.000000   -0.408511

  MBIS Quadrupoles: [e a0^2]
   Center  Symbol  Z      XX        XY        XZ        YY        YZ        ZZ
      1       O    8   -4.9944    0.0000    0.0000   -4.1788    0.0000   -5.6527
      2       O    8   -4.9944    0.0000    0.0000   -4.1788   -0.0000   -5.6527

  MBIS Octupoles: [e a0^3]
   Center  Symbol  Z      XXX       XXY       XXZ       XYY       XYZ       XZZ       YYY       YYZ       YZZ       ZZZ
      1       O    8   -0.0000   -0.0000    1.4291   -0.0000   -0.0000   -0.0000    0.0000    1.0010   -0.0000    0.7035
      2       O    8   -0.0000   -0.0000   -1.4291   -0.0000    0.0000   -0.0000   -0.0000   -1.0010   -0.0000   -0.7035

  MBIS Radial Moments:
   Center  Symbol  Z      [a0^2]      [a0^3]      [a0^4]
      1       O    8   14.825865   33.697201   92.410838
      2       O    8   14.825865   33.697201   92.410838

  MBIS Valence Widths: [a0]
   Center  Symbol  Z     Width
      1       O    8    0.418090
      2       O    8    0.418090

*** tstop() called on Mac.lan at Sun Aug 10 17:27:57 2025
Module time:
	user time   =       3.96 seconds =       0.07 minutes
	system time =       2.83 seconds =       0.05 minutes
	total time  =          1 seconds =       0.02 minutes
Total time:
	user time   =      19.19 seconds =       0.32 minutes
	system time =       5.43 seconds =       0.09 minutes
	total time  =          2 seconds =       0.03 minutes

    Psi4 stopped on: Sunday, 10 August 2025 05:27PM
    Psi4 wall time for execution: 0:00:02.39

*** Psi4 exiting successfully. Buy a developer a beer!
