                               Psi4 1.9.1 release

  ==> Input File <==

--------------------------------------------------------------------------
molecule {
-1 1
O           0.000000           0.000000           0.000000
H           0.000000           0.000000           1.319851
}

set {
basis              cc-pvtz
reference          uks
maxiter            500
DAMPING_PERCENTAGE 1
E_CONVERGENCE      1.0E-8
D_CONVERGENCE      1.0E-8
DIIS_MAX_VECS      400
MBIS_MAXITER       8000
guess              read
}

E, wfn = energy('b3lyp', restart_file='last_wfn', return_wfn=True)
properties('b3lyp','MBIS_CHARGES', wfn=wfn)
wfn.to_file('last_wfn')
--------------------------------------------------------------------------

    Molecular point group: c2v
  Charge       = -1
  Multiplicity = 1
  Basis Set: CC-PVTZ
    Blend: CC-PVTZ
  Basis Set: (CC-PVTZ AUX)
    Blend: CC-PVTZ-JKFIT
  @DF-UKS Final Energy:   -75.74359777866346
    Total Energy =                        -75.7435977786634425
 Dipole X            :          0.0000000            0.0000000            0.0000000
 Dipole Y            :          0.0000000            0.0000000            0.0000000
 Dipole Z            :         -1.1605468            1.1636029            0.0030561
 Magnitude           :                                                    0.0030561
    Molecular point group: c2v

    Geometry (in Angstrom), charge = -1, multiplicity = 1:

       Center              X                  Y                   Z               Mass
    ------------   -----------------  -----------------  -----------------  -----------------
         O            0.000000000000     0.000000000000    -0.078233208521    15.994914619570
         H            0.000000000000     0.000000000000     1.241617791479     1.007825032230

  Charge       = -1
  Multiplicity = 1
  Basis Set: CC-PVTZ
    Blend: CC-PVTZ
  Basis Set: (CC-PVTZ AUX)
    Blend: CC-PVTZ-JKFIT

    Orbital Energies [Eh]
    ---------------------

    Alpha Occupied:

       1A1   -18.731670     2A1    -0.492145     3A1    -0.021700
       1B1     0.095056     1B2     0.095056

    Alpha Virtual:

       4A1     0.267612     5A1     0.559418     2B1     0.884042
       2B2     0.884042     6A1     0.892555     3B1     1.017587
       3B2     1.017587     7A1     1.220130     8A1     1.408257
       9A1     1.871234     1A2     1.871234     4B2     1.987800
       4B1     1.987800    10A1     2.411564    11A1     2.682425
       2A2     3.510493    12A1     3.510496    13A1     3.596939
       5B2     3.622106     5B1     3.622106     6B2     3.995475
       6B1     3.995475     7B2     4.127177     7B1     4.127177
      14A1     4.192374    15A1     5.101352     8B2     5.562246
       8B1     5.562246    16A1     5.572981     3A2     5.572981
       9B1     5.911282     9B2     5.911282    17A1     6.322619
      18A1     6.626385     4A2     6.626388    10B1     6.829200
      10B2     6.829200    19A1     7.363856    20A1     8.205501

    Beta Occupied:

       1A1   -18.731670     2A1    -0.492145     3A1    -0.021700
       1B1     0.095056     1B2     0.095056

    Beta Virtual:

       4A1     0.267612     5A1     0.559418     2B1     0.884042
       2B2     0.884042     6A1     0.892555     3B1     1.017587
       3B2     1.017587     7A1     1.220130     8A1     1.408257
       9A1     1.871234     1A2     1.871234     4B2     1.987800
       4B1     1.987800    10A1     2.411564    11A1     2.682425
       2A2     3.510493    12A1     3.510496    13A1     3.596939
       5B2     3.622106     5B1     3.622106     6B2     3.995475
       6B1     3.995475     7B2     4.127177     7B1     4.127177
      14A1     4.192374    15A1     5.101352     8B2     5.562246
       8B1     5.562246    16A1     5.572981     3A2     5.572981
       9B1     5.911282     9B2     5.911282    17A1     6.322619
      18A1     6.626385     4A2     6.626388    10B2     6.829200
      10B1     6.829200    19A1     7.363856    20A1     8.205501

    Final Occupation by Irrep:
             A1    A2    B1    B2
    DOCC [     3,    0,    1,    1 ]
    SOCC [     0,    0,    0,    0 ]
    NA   [     3,    0,    1,    1 ]
    NB   [     3,    0,    1,    1 ]

  @DF-UKS Final Energy:   -75.74359777879111

   => Energetics <=

    Nuclear Repulsion Energy =              3.2074966684572725
    One-Electron Energy =                -114.5020239187262518
    Two-Electron Energy =                  42.9089259615969212
    DFT Exchange-Correlation Energy =      -7.3579964901190529
    Empirical Dispersion Energy =           0.0000000000000000
    VV10 Nonlocal Energy =                  0.0000000000000000
    Total Energy =                        -75.7435977787911128

  UHF NO Occupations:
  HONO-2 :    1 A1 2.0000000
  HONO-1 :    2 A1 2.0000000
  HONO-0 :    3 A1 2.0000000
  LUNO+0 :    4 A1 0.0000000
  LUNO+1 :    5 A1 0.0000000
  LUNO+2 :    6 A1 0.0000000
  LUNO+3 :    7 A1 0.0000000

Computation Completed

Properties will be evaluated at   0.000000,   0.000000,   0.000000 [a0]

Properties computed using the B3LYP density matrix

 Multipole Moments:

 ------------------------------------------------------------------------------------
     Multipole            Electronic (a.u.)      Nuclear  (a.u.)        Total (a.u.)
 ------------------------------------------------------------------------------------

 L = 1.  Multiply by 2.5417464519 to convert [e a0] to [Debye]
 Dipole X            :          0.0000000            0.0000000            0.0000000
 Dipole Y            :          0.0000000            0.0000000            0.0000000
 Dipole Z            :         -1.1605468            1.1636029            0.0030561
 Magnitude           :                                                    0.0030561

 L = 2.  Multiply by 1.3450342976 to convert [e a0^2] to [Debye ang]
 Quadrupole XX       :         -6.6591314            0.0000000           -6.6591314
 Quadrupole XY       :          0.0000000            0.0000000            0.0000000
 Quadrupole XZ       :          0.0000000            0.0000000            0.0000000
 Quadrupole YY       :         -6.6591314            0.0000000           -6.6591314
 Quadrupole YZ       :          0.0000000            0.0000000            0.0000000
 Quadrupole ZZ       :        -11.7316242            5.6800579           -6.0515663
 Traceless XX        :          1.6908309           -1.8933526           -0.2025217
 Traceless YY        :          1.6908309           -1.8933526           -0.2025217
 Traceless ZZ        :         -3.3816619            3.7867053            0.4050434

 ------------------------------------------------------------------------------------
  ==> Computing MBIS Charges <==

  Electron Count from Grid (Expected Number): 10.00000 (10.00000)
  Difference:  0.00000

  MBIS Charges: (a.u.)
   Center  Symbol  Z      Pop.       Charge
      1       O    8    8.974776   -0.974776
      2       H    1    1.025224   -0.025224

  MBIS Dipoles: [e a0]
   Center  Symbol  Z        X           Y           Z
      1       O    8   -0.000000   -0.000000   -0.099360
      2       H    1   -0.000000    0.000000    0.017489

  MBIS Quadrupoles: [e a0^2]
   Center  Symbol  Z      XX        XY        XZ        YY        YZ        ZZ
      1       O    8   -5.5713    0.0000    0.0000   -5.5713    0.0000   -4.9431
      2       H    1   -1.0879    0.0000   -0.0000   -1.0879    0.0000   -1.0598

  MBIS Octupoles: [e a0^3]
   Center  Symbol  Z      XXX       XXY       XXZ       XYY       XYZ       XZZ       YYY       YYZ       YZZ       ZZZ
      1       O    8   -0.0000   -0.0000   -0.2009    0.0000    0.0000   -0.0000   -0.0000   -0.2009   -0.0000   -0.9779
      2       H    1    0.0000    0.0000    0.0085    0.0000   -0.0000   -0.0000    0.0000    0.0085    0.0000    0.0078

  MBIS Radial Moments:
   Center  Symbol  Z      [a0^2]      [a0^3]      [a0^4]
      1       O    8   16.085633   33.889406   84.734846
      2       H    1    3.235476    8.235745   24.692023

  MBIS Valence Widths: [a0]
   Center  Symbol  Z     Width
      1       O    8    0.429842
      2       H    1    0.511840

*** tstop() called on Mac.lan at Sun Aug 10 17:38:28 2025
Module time:
	user time   =       2.58 seconds =       0.04 minutes
	system time =       1.91 seconds =       0.03 minutes
	total time  =          0 seconds =       0.00 minutes
Total time:
	user time   =      12.57 seconds =       0.21 minutes
	system time =       4.21 seconds =       0.07 minutes
	total time  =          1 seconds =       0.02 minutes

    Psi4 stopped on: Sunday, 10 August 2025 05:38PM
    Psi4 wall time for execution: 0:00:01.63

*** Psi4 exiting successfully. Buy a developer a beer!
