                               Psi4 1.9.1 release

  ==> Input File <==

--------------------------------------------------------------------------
molecule {
-1 3
C           0.000000           0.000000           0.000000
H           0.000000           0.000000           1.645902
}

set {
basis              cc-pvtz
reference          uks
maxiter            500
DAMPING_PERCENTAGE 1
E_CONVERGENCE      1.0E-8
D_CONVERGENCE      1.0E-8
DIIS_MAX_VECS      400
MBIS_MAXITER       8000
guess              read
}

E, wfn = energy('b3lyp', restart_file='last_wfn', return_wfn=True)
properties('b3lyp','MBIS_CHARGES', wfn=wfn)
wfn.to_file('last_wfn')
--------------------------------------------------------------------------

    Molecular point group: c2v
  Charge       = -1
  Multiplicity = 3
  Basis Set: CC-PVTZ
    Blend: CC-PVTZ
  Basis Set: (CC-PVTZ AUX)
    Blend: CC-PVTZ-JKFIT
  @DF-UKS Final Energy:   -38.48993766352761
    Total Energy =                        -38.4899376635276056
 Dipole X            :          0.0000000            0.0000000            0.0000000
 Dipole Y            :          0.0000000            0.0000000            0.0000000
 Dipole Z            :         -1.9563602            1.4234351           -0.5329251
 Magnitude           :                                                    0.5329251
    Molecular point group: c2v

    Geometry (in Angstrom), charge = -1, multiplicity = 3:

       Center              X                  Y                   Z               Mass
    ------------   -----------------  -----------------  -----------------  -----------------
         C            0.000000000000     0.000000000000    -0.127521798001    12.000000000000
         H            0.000000000000     0.000000000000     1.518380201999     1.007825032230

  Charge       = -1
  Multiplicity = 3
  Basis Set: CC-PVTZ
    Blend: CC-PVTZ
  Basis Set: (CC-PVTZ AUX)
    Blend: CC-PVTZ-JKFIT

    Orbital Energies [Eh]
    ---------------------

    Alpha Occupied:

       1A1    -9.940622     2A1    -0.270753     3A1     0.000577
       1B2     0.059267     1B1     0.059267

    Alpha Virtual:

       4A1     0.240950     5A1     0.506634     2B1     0.553384
       2B2     0.553384     6A1     0.573745     7A1     0.715463
       3B2     0.825876     3B1     0.825876     1A2     0.945598
       8A1     0.945598     9A1     1.083619     4B1     1.173253
       4B2     1.173253    10A1     1.462442     5B1     2.228732
       5B2     2.228732    11A1     2.366114    12A1     2.720600
       6B1     2.870891     6B2     2.870891    13A1     2.905838
      14A1     2.945673     2A2     2.945673     7B1     2.963130
       7B2     2.963130    15A1     3.213836     3A2     3.213836
       8B2     3.279554     8B1     3.279554    16A1     3.520584
      17A1     3.550898     4A2     3.550909     9B1     3.866511
       9B2     3.866511    18A1     3.937824    10B1     4.125980
      10B2     4.125980    19A1     4.318483    20A1     5.296689

    Beta Occupied:

       1A1    -9.915071     2A1    -0.180267     3A1     0.015980

    Beta Virtual:

       1B2     0.223026     1B1     0.223026     4A1     0.260684
       5A1     0.506505     6A1     0.594132     2B1     0.623741
       2B2     0.623741     7A1     0.763471     3B1     0.843222
       3B2     0.843222     8A1     1.022041     1A2     1.022041
       9A1     1.102533     4B1     1.198774     4B2     1.198774
      10A1     1.473011     5B1     2.308879     5B2     2.308879
      11A1     2.384668    12A1     2.720300     6B1     2.908930
       6B2     2.908930    13A1     2.939401    14A1     3.008903
       2A2     3.008903     7B1     3.059724     7B2     3.059724
      15A1     3.330926     3A2     3.330927     8B2     3.347473
       8B1     3.347473    16A1     3.552288     4A2     3.552299
      17A1     3.554581     9B2     3.864280     9B1     3.864280
      18A1     3.980249    10B1     4.125777    10B2     4.125777
      19A1     4.314502    20A1     5.313076

    Final Occupation by Irrep:
             A1    A2    B1    B2
    DOCC [     3,    0,    0,    0 ]
    SOCC [     0,    0,    1,    1 ]
    NA   [     3,    0,    1,    1 ]
    NB   [     3,    0,    0,    0 ]

  @DF-UKS Final Energy:   -38.48993766322111

   => Energetics <=

    Nuclear Repulsion Energy =              1.9290718791398274
    One-Electron Energy =                 -57.2912590152176691
    Two-Electron Energy =                  21.5504949395868159
    DFT Exchange-Correlation Energy =      -4.6782454667300799
    Empirical Dispersion Energy =           0.0000000000000000
    VV10 Nonlocal Energy =                  0.0000000000000000
    Total Energy =                        -38.4899376632211059

  UHF NO Occupations:
  HONO-2 :    3 A1 1.9953240
  HONO-1 :    1 B2 1.0000000
  HONO-0 :    1 B1 1.0000000
  LUNO+0 :    4 A1 0.0046760
  LUNO+1 :    5 A1 0.0011243
  LUNO+2 :    6 A1 0.0000011
  LUNO+3 :    2 B2 0.0000000

Computation Completed

Properties will be evaluated at   0.000000,   0.000000,   0.000000 [a0]

Properties computed using the B3LYP density matrix

 Multipole Moments:

 ------------------------------------------------------------------------------------
     Multipole            Electronic (a.u.)      Nuclear  (a.u.)        Total (a.u.)
 ------------------------------------------------------------------------------------

 L = 1.  Multiply by 2.5417464519 to convert [e a0] to [Debye]
 Dipole X            :          0.0000000            0.0000000            0.0000000
 Dipole Y            :          0.0000000            0.0000000            0.0000000
 Dipole Z            :         -1.9563602            1.4234351           -0.5329251
 Magnitude           :                                                    0.5329251

 L = 2.  Multiply by 1.3450342976 to convert [e a0^2] to [Debye ang]
 Quadrupole XX       :         -8.2921718            0.0000000           -8.2921718
 Quadrupole XY       :          0.0000000            0.0000000            0.0000000
 Quadrupole XZ       :          0.0000000            0.0000000            0.0000000
 Quadrupole YY       :         -8.2921718            0.0000000           -8.2921718
 Quadrupole YZ       :          0.0000000            0.0000000            0.0000000
 Quadrupole ZZ       :        -19.4839622            8.5814448          -10.9025174
 Traceless XX        :          3.7305968           -2.8604816            0.8701152
 Traceless YY        :          3.7305968           -2.8604816            0.8701152
 Traceless ZZ        :         -7.4611936            5.7209632           -1.7402304

 ------------------------------------------------------------------------------------
  ==> Computing MBIS Charges <==

  Electron Count from Grid (Expected Number):  8.00000 ( 8.00000)
  Difference: -0.00000

  MBIS Charges: (a.u.)
   Center  Symbol  Z      Pop.       Charge
      1       C    6    6.700800   -0.700800
      2       H    1    1.299200   -0.299200

  MBIS Dipoles: [e a0]
   Center  Symbol  Z        X           Y           Z
      1       C    6   -0.000000   -0.000000    0.175548
      2       H    1    0.000000    0.000000   -0.018852

  MBIS Quadrupoles: [e a0^2]
   Center  Symbol  Z      XX        XY        XZ        YY        YZ        ZZ
      1       C    6   -6.7076   -0.0000    0.0000   -6.7076    0.0000   -6.5909
      2       H    1   -1.5846   -0.0000    0.0000   -1.5846    0.0000   -1.6148

  MBIS Octupoles: [e a0^3]
   Center  Symbol  Z      XXX       XXY       XXZ       XYY       XYZ       XZZ       YYY       YYZ       YZZ       ZZZ
      1       C    6   -0.0000   -0.0000    0.1079   -0.0000    0.0000   -0.0000   -0.0000    0.1079   -0.0000   -0.7734
      2       H    1    0.0000    0.0000   -0.1075    0.0000   -0.0000    0.0000   -0.0000   -0.1075   -0.0000   -0.1549

  MBIS Radial Moments:
   Center  Symbol  Z      [a0^2]      [a0^3]      [a0^4]
      1       C    6   20.006118   55.763629   183.650052
      2       H    1    4.783936   13.149068   42.490685

  MBIS Valence Widths: [a0]
   Center  Symbol  Z     Width
      1       C    6    0.583027
      2       H    1    0.552748

*** tstop() called on Mac.lan at Sun Aug 10 17:36:30 2025
Module time:
	user time   =       2.79 seconds =       0.05 minutes
	system time =       1.58 seconds =       0.03 minutes
	total time  =          0 seconds =       0.00 minutes
Total time:
	user time   =      13.63 seconds =       0.23 minutes
	system time =       3.81 seconds =       0.06 minutes
	total time  =          2 seconds =       0.03 minutes

    Psi4 stopped on: Sunday, 10 August 2025 05:36PM
    Psi4 wall time for execution: 0:00:01.70

*** Psi4 exiting successfully. Buy a developer a beer!
