                               Psi4 1.9.1 release

  ==> Input File <==

--------------------------------------------------------------------------
molecule {
-1 2
O           0.000000           0.000000           0.000000
O           0.000000           0.000000           1.108114
}

set {
basis              cc-pvtz
reference          uks
maxiter            500
DAMPING_PERCENTAGE 1
E_CONVERGENCE      1.0E-8
D_CONVERGENCE      1.0E-8
DIIS_MAX_VECS      400
MBIS_MAXITER       8000
guess              read
}

E, wfn = energy('b3lyp', restart_file='last_wfn', return_wfn=True)
properties('b3lyp','MBIS_CHARGES', wfn=wfn)
wfn.to_file('last_wfn')
--------------------------------------------------------------------------

    Molecular point group: d2h
  Charge       = -1
  Multiplicity = 2
  Basis Set: CC-PVTZ
    Blend: CC-PVTZ
  Basis Set: (CC-PVTZ AUX)
    Blend: CC-PVTZ-JKFIT
  @DF-UKS Final Energy:  -150.30088396180173
    Total Energy =                       -150.3008839618017305
 Dipole X            :          0.0000000            0.0000000            0.0000000
 Dipole Y            :          0.0000000            0.0000000            0.0000000
 Dipole Z            :          0.0000000            0.0000000            0.0000000
 Magnitude           :                                                    0.0000000
    Molecular point group: d2h

    Geometry (in Angstrom), charge = -1, multiplicity = 2:

       Center              X                  Y                   Z               Mass
    ------------   -----------------  -----------------  -----------------  -----------------
         O            0.000000000000     0.000000000000    -0.554057000000    15.994914619570
         O            0.000000000000     0.000000000000     0.554057000000    15.994914619570

  Charge       = -1
  Multiplicity = 2
  Basis Set: CC-PVTZ
    Blend: CC-PVTZ
  Basis Set: (CC-PVTZ AUX)
    Blend: CC-PVTZ-JKFIT

    Orbital Energies [Eh]
    ---------------------

    Alpha Occupied:

       1Ag   -18.798336     1B1u  -18.797894     2Ag    -0.943862
       2B1u   -0.371008     1B2u   -0.182634     1B3u   -0.143348
       3Ag    -0.142651     1B3g    0.146868     1B2g    0.188739

    Alpha Virtual:

       3B1u    0.601123     2B2u    0.821060     2B3u    0.842661
       4Ag     0.853710     2B3g    0.940857     2B2g    0.962246
       4B1u    0.976069     5Ag     1.027657     5B1u    1.525736
       1B1g    1.580956     6Ag     1.581209     3B2u    1.742560
       3B3u    1.770295     1Au     2.044976     6B1u    2.045098
       7Ag     2.556839     7B1u    2.561745     3B3g    2.588827
       3B2g    2.615035     4B2u    3.826520     4B3u    3.862291
       8Ag     4.060634     4B3g    4.161673     4B2g    4.199474
       2B1g    4.944052     9Ag     4.944197     8B1u    5.061029
       5B2u    5.088873     5B3u    5.117477     6B2u    5.256739
       6B3u    5.256855    10Ag     5.473182     5B3g    5.626260
       5B2g    5.626275     9B1u    6.066207     2Au     6.332073
      10B1u    6.332384     3B1g    6.457572    11Ag     6.457611
       3Au     6.697855    11B1u    6.698433     6B3g    6.736437
       6B2g    6.769393     7B2u    6.944204     7B3u    6.978519
      12B1u    7.416476    12Ag     7.510367     7B3g    7.955160
       7B2g    7.985602    13Ag     8.037667    13B1u   15.252131

    Beta Occupied:

       1Ag   -18.784351     1B1u  -18.783834     2Ag    -0.919069
       2B1u   -0.329223     1B3u   -0.131900     3Ag    -0.122673
       1B2u   -0.102983     1B2g    0.203529

    Beta Virtual:

       1B3g    0.313398     3B1u    0.611575     2B3u    0.847303
       2B2u    0.851318     4Ag     0.858992     2B2g    0.968775
       2B3g    0.984862     4B1u    0.994789     5Ag     1.039297
       5B1u    1.542868     1B1g    1.600610     6Ag     1.601767
       3B3u    1.772617     3B2u    1.773324     1Au     2.075345
       6B1u    2.076926     7Ag     2.570909     7B1u    2.572747
       3B2g    2.619177     3B3g    2.622198     4B3u    3.873142
       4B2u    3.888624     8Ag     4.072090     4B2g    4.210889
       4B3g    4.222970     2B1g    4.962116     9Ag     4.963195
       8B1u    5.080182     5B2u    5.117089     5B3u    5.121564
       6B3u    5.289115     6B2u    5.289380    10Ag     5.487896
       5B2g    5.662116     5B3g    5.662391     9B1u    6.086033
       2Au     6.362079    10B1u    6.363903     3B1g    6.507303
      11Ag     6.510682     3Au     6.741681    11B1u    6.744694
       6B2g    6.775781     6B3g    6.785762     7B3u    6.984435
       7B2u    6.990442    12B1u    7.431701    12Ag     7.538990
       7B3g    7.987714     7B2g    7.989650    13Ag     8.049118
      13B1u   15.272899

    Final Occupation by Irrep:
             Ag   B1g   B2g   B3g    Au   B1u   B2u   B3u
    DOCC [     3,    0,    1,    0,    0,    2,    1,    1 ]
    SOCC [     0,    0,    0,    1,    0,    0,    0,    0 ]
    NA   [     3,    0,    1,    1,    0,    2,    1,    1 ]
    NB   [     3,    0,    1,    0,    0,    2,    1,    1 ]

  @DF-UKS Final Energy:  -150.30088396158339

   => Energetics <=

    Nuclear Repulsion Energy =             30.5630481005383956
    One-Electron Energy =                -273.5321392998955616
    Two-Electron Energy =                 106.8530500114168547
    DFT Exchange-Correlation Energy =     -14.1848427736430747
    Empirical Dispersion Energy =           0.0000000000000000
    VV10 Nonlocal Energy =                  0.0000000000000000
    Total Energy =                       -150.3008839615833949

  UHF NO Occupations:
  HONO-2 :    2B1u 1.9997234
  HONO-1 :    1B2u 1.9990539
  HONO-0 :    1B3g 1.0000000
  LUNO+0 :    2B2u 0.0009461
  LUNO+1 :    3B1u 0.0002766
  LUNO+2 :    4 Ag 0.0001377
  LUNO+3 :    2B2g 0.0000570

Computation Completed

Properties will be evaluated at   0.000000,   0.000000,   0.000000 [a0]

Properties computed using the B3LYP density matrix

 Multipole Moments:

 ------------------------------------------------------------------------------------
     Multipole            Electronic (a.u.)      Nuclear  (a.u.)        Total (a.u.)
 ------------------------------------------------------------------------------------

 L = 1.  Multiply by 2.5417464519 to convert [e a0] to [Debye]
 Dipole X            :          0.0000000            0.0000000            0.0000000
 Dipole Y            :          0.0000000            0.0000000            0.0000000
 Dipole Z            :          0.0000000            0.0000000            0.0000000
 Magnitude           :                                                    0.0000000

 L = 2.  Multiply by 1.3450342976 to convert [e a0^2] to [Debye ang]
 Quadrupole XX       :         -9.3861380            0.0000000           -9.3861380
 Quadrupole XY       :          0.0000000            0.0000000            0.0000000
 Quadrupole XZ       :          0.0000000            0.0000000            0.0000000
 Quadrupole YY       :         -8.5227208            0.0000000           -8.5227208
 Quadrupole YZ       :          0.0000000            0.0000000            0.0000000
 Quadrupole ZZ       :        -28.8370616           17.5398797          -11.2971820
 Traceless XX        :          6.1958355           -5.8466266            0.3492089
 Traceless YY        :          7.0592527           -5.8466266            1.2126261
 Traceless ZZ        :        -13.2550882           11.6932531           -1.5618351

 ------------------------------------------------------------------------------------
  ==> Computing MBIS Charges <==

  Electron Count from Grid (Expected Number): 17.00000 (17.00000)
  Difference:  0.00000

  MBIS Charges: (a.u.)
   Center  Symbol  Z      Pop.       Charge
      1       O    8    8.500001   -0.500001
      2       O    8    8.500001   -0.500001

  MBIS Dipoles: [e a0]
   Center  Symbol  Z        X           Y           Z
      1       O    8    0.000000   -0.000000    0.303609
      2       O    8    0.000000   -0.000000   -0.303609

  MBIS Quadrupoles: [e a0^2]
   Center  Symbol  Z      XX        XY        XZ        YY        YZ        ZZ
      1       O    8   -4.6931   -0.0000    0.0000   -4.2614   -0.0000   -4.4647
      2       O    8   -4.6931   -0.0000   -0.0000   -4.2614    0.0000   -4.4647

  MBIS Octupoles: [e a0^3]
   Center  Symbol  Z      XXX       XXY       XXZ       XYY       XYZ       XZZ       YYY       YYZ       YZZ       ZZZ
      1       O    8   -0.0000   -0.0000    0.5428    0.0000   -0.0000   -0.0000   -0.0000    0.3619   -0.0000    0.1083
      2       O    8    0.0000   -0.0000   -0.5428    0.0000    0.0000   -0.0000    0.0000   -0.3619    0.0000   -0.1083

  MBIS Radial Moments:
   Center  Symbol  Z      [a0^2]      [a0^3]      [a0^4]
      1       O    8   13.419133   26.835973   64.195182
      2       O    8   13.419133   26.835973   64.195182

  MBIS Valence Widths: [a0]
   Center  Symbol  Z     Width
      1       O    8    0.404345
      2       O    8    0.404345

*** tstop() called on Mac.lan at Sun Aug 10 17:27:11 2025
Module time:
	user time   =       4.08 seconds =       0.07 minutes
	system time =       1.17 seconds =       0.02 minutes
	total time  =          0 seconds =       0.00 minutes
Total time:
	user time   =      16.30 seconds =       0.27 minutes
	system time =       3.42 seconds =       0.06 minutes
	total time  =          1 seconds =       0.02 minutes

    Psi4 stopped on: Sunday, 10 August 2025 05:27PM
    Psi4 wall time for execution: 0:00:01.93

*** Psi4 exiting successfully. Buy a developer a beer!
