                               Psi4 1.9.1 release

  ==> Input File <==

--------------------------------------------------------------------------
molecule {
-1 2
O           0.000000           0.000000           0.000000
C           0.000000           0.000000           0.772200
}

set {
basis              cc-pvtz
reference          uks
maxiter            500
DAMPING_PERCENTAGE 1
E_CONVERGENCE      1.0E-8
D_CONVERGENCE      1.0E-8
DIIS_MAX_VECS      400
MBIS_MAXITER       8000
guess              read
}

E, wfn = energy('b3lyp', restart_file='last_wfn', return_wfn=True)
properties('b3lyp','MBIS_CHARGES', wfn=wfn)
wfn.to_file('last_wfn')
--------------------------------------------------------------------------

    Molecular point group: c2v
  Charge       = -1
  Multiplicity = 2
  Basis Set: CC-PVTZ
    Blend: CC-PVTZ
  Basis Set: (CC-PVTZ AUX)
    Blend: CC-PVTZ-JKFIT
  @DF-UKS Final Energy:  -112.42927579720548
    Total Energy =                       -112.4292757972054773
 Dipole X            :          0.0000000            0.0000000            0.0000000
 Dipole Y            :          0.0000000            0.0000000            0.0000000
 Dipole Z            :         -1.6447561           -0.0015905           -1.6463466
 Magnitude           :                                                    1.6463466
    Molecular point group: c2v

    Geometry (in Angstrom), charge = -1, multiplicity = 2:

       Center              X                  Y                   Z               Mass
    ------------   -----------------  -----------------  -----------------  -----------------
         O            0.000000000000     0.000000000000    -0.331002974145    15.994914619570
         C            0.000000000000     0.000000000000     0.441197025855    12.000000000000

  Charge       = -1
  Multiplicity = 2
  Basis Set: CC-PVTZ
    Blend: CC-PVTZ
  Basis Set: (CC-PVTZ AUX)
    Blend: CC-PVTZ-JKFIT

    Orbital Energies [Eh]
    ---------------------

    Alpha Occupied:

       1A1   -18.881114     2A1    -9.890005     3A1    -1.014018
       1B1    -0.355017     1B2    -0.352413     4A1    -0.288459
       5A1    -0.044513     2B1     0.301236

    Alpha Virtual:

       2B2     0.364880     6A1     0.394647     7A1     0.548345
       3B2     0.571313     3B1     0.573996     8A1     0.786001
       4B1     0.855626     4B2     0.858924     1A2     0.914039
       9A1     0.916422    10A1     1.131397     5B1     1.314064
       5B2     1.314644    11A1     1.565822     2A2     1.890749
      12A1     1.891858     6B2     1.935774     6B1     1.940788
      13A1     2.064793    14A1     2.500380     7B2     2.531141
       7B1     2.532688     8B1     2.942555     8B2     2.942607
      15A1     3.037594     3A2     3.192451    16A1     3.193328
       9B2     3.356359     9B1     3.359713     4A2     3.428935
      17A1     3.429059    18A1     3.469418    10B1     4.136921
      10B2     4.137667    19A1     4.493495    11B2     4.538705
      11B1     4.542303    12B1     5.505078    12B2     5.505090
      20A1     6.005182     5A2     6.479705    21A1     6.480150
       6A2     6.611765    22A1     6.612112    23A1     6.791450
      13B2     6.824565    13B1     6.826342    24A1     7.547486
      14B2     7.827137    14B1     7.827545    25A1    10.133709
      26A1    17.216752

    Beta Occupied:

       1A1   -18.875470     2A1    -9.890265     3A1    -1.007173
       1B2    -0.349513     1B1    -0.332165     4A1    -0.280408
       5A1    -0.029549

    Beta Virtual:

       2B2     0.376149     2B1     0.400666     6A1     0.402937
       7A1     0.564818     3B2     0.571147     3B1     0.586270
       8A1     0.793061     4B2     0.861595     4B1     0.876649
       1A2     0.934698     9A1     0.935133    10A1     1.138803
       5B2     1.316701     5B1     1.338559    11A1     1.570330
       2A2     1.904138    12A1     1.904165     6B2     1.936851
       6B1     1.954200    13A1     2.070480    14A1     2.509175
       7B2     2.531991     7B1     2.544633     8B2     2.953008
       8B1     2.953033    15A1     3.040713     3A2     3.201754
      16A1     3.201941     9B2     3.354505     9B1     3.371995
      17A1     3.433603     4A2     3.435555    18A1     3.473717
      10B2     4.140520    10B1     4.157555    19A1     4.498347
      11B2     4.539684    11B1     4.555110    12B2     5.515637
      12B1     5.515640    20A1     6.009426     5A2     6.496010
      21A1     6.496029    22A1     6.621857     6A2     6.621945
      23A1     6.795895    13B2     6.826234    13B1     6.839114
      24A1     7.551141    14B2     7.828933    14B1     7.842142
      25A1    10.139581    26A1    17.223727

    Final Occupation by Irrep:
             A1    A2    B1    B2
    DOCC [     5,    0,    1,    1 ]
    SOCC [     0,    0,    1,    0 ]
    NA   [     5,    0,    2,    1 ]
    NB   [     5,    0,    1,    1 ]

  @DF-UKS Final Energy:  -112.42927579647038

   => Energetics <=

    Nuclear Repulsion Energy =             32.8936883089355092
    One-Electron Energy =                -220.8064496423249921
    Two-Electron Energy =                  87.3950030998874325
    DFT Exchange-Correlation Energy =     -11.9115175629683261
    Empirical Dispersion Energy =           0.0000000000000000
    VV10 Nonlocal Energy =                  0.0000000000000000
    Total Energy =                       -112.4292757964703782

  UHF NO Occupations:
  HONO-2 :    1 B1 1.9998936
  HONO-1 :    5 A1 1.9994516
  HONO-0 :    2 B1 1.0000000
  LUNO+0 :    6 A1 0.0005484
  LUNO+1 :    3 B1 0.0001064
  LUNO+2 :    7 A1 0.0000226
  LUNO+3 :    2 B2 0.0000063

Computation Completed

Properties will be evaluated at   0.000000,   0.000000,   0.000000 [a0]

Properties computed using the B3LYP density matrix

 Multipole Moments:

 ------------------------------------------------------------------------------------
     Multipole            Electronic (a.u.)      Nuclear  (a.u.)        Total (a.u.)
 ------------------------------------------------------------------------------------

 L = 1.  Multiply by 2.5417464519 to convert [e a0] to [Debye]
 Dipole X            :          0.0000000            0.0000000            0.0000000
 Dipole Y            :          0.0000000            0.0000000            0.0000000
 Dipole Z            :         -1.6447561           -0.0015905           -1.6463466
 Magnitude           :                                                    1.6463466

 L = 2.  Multiply by 1.3450342976 to convert [e a0^2] to [Debye ang]
 Quadrupole XX       :        -13.5871681            0.0000000          -13.5871681
 Quadrupole XY       :          0.0000000            0.0000000            0.0000000
 Quadrupole XZ       :          0.0000000            0.0000000            0.0000000
 Quadrupole YY       :         -9.3791820            0.0000000           -9.3791820
 Quadrupole YZ       :          0.0000000            0.0000000            0.0000000
 Quadrupole ZZ       :        -20.1455179            7.3008015          -12.8447164
 Traceless XX        :          0.7834546           -2.4336005           -1.6501459
 Traceless YY        :          4.9914407           -2.4336005            2.5578402
 Traceless ZZ        :         -5.7748953            4.8672010           -0.9076943

 ------------------------------------------------------------------------------------
  ==> Computing MBIS Charges <==

  Electron Count from Grid (Expected Number): 15.00000 (15.00000)
  Difference:  0.00000

  MBIS Charges: (a.u.)
   Center  Symbol  Z      Pop.       Charge
      1       O    8    7.763479    0.236521
      2       C    6    7.236523   -1.236523

  MBIS Dipoles: [e a0]
   Center  Symbol  Z        X           Y           Z
      1       O    8   -0.000000   -0.000000   -0.042896
      2       C    6   -0.000000    0.000000   -0.424564

  MBIS Quadrupoles: [e a0^2]
   Center  Symbol  Z      XX        XY        XZ        YY        YZ        ZZ
      1       O    8   -2.7244    0.0000   -0.0000   -2.5890   -0.0000   -3.1213
      2       C    6   -10.8627   -0.0000    0.0000   -6.7902    0.0000   -8.3022

  MBIS Octupoles: [e a0^3]
   Center  Symbol  Z      XXX       XXY       XXZ       XYY       XYZ       XZZ       YYY       YYZ       YZZ       ZZZ
      1       O    8   -0.0000    0.0000   -0.0218   -0.0000   -0.0000   -0.0000   -0.0000    0.0489    0.0000    0.2247
      2       C    6    0.0000    0.0000   -3.4052   -0.0000   -0.0000   -0.0000    0.0000   -1.0934    0.0000   -1.2253

  MBIS Radial Moments:
   Center  Symbol  Z      [a0^2]      [a0^3]      [a0^4]
      1       O    8    8.434667   13.737839   27.059659
      2       C    6   25.955112   80.380790   288.985556

  MBIS Valence Widths: [a0]
   Center  Symbol  Z     Width
      1       O    8    0.337806
      2       C    6    0.629351

*** tstop() called on Mac.lan at Sun Aug 10 17:42:15 2025
Module time:
	user time   =       3.60 seconds =       0.06 minutes
	system time =       2.78 seconds =       0.05 minutes
	total time  =          0 seconds =       0.00 minutes
Total time:
	user time   =      18.62 seconds =       0.31 minutes
	system time =       4.98 seconds =       0.08 minutes
	total time  =          2 seconds =       0.03 minutes

    Psi4 stopped on: Sunday, 10 August 2025 05:42PM
    Psi4 wall time for execution: 0:00:02.27

*** Psi4 exiting successfully. Buy a developer a beer!
