                               Psi4 1.9.1 release

  ==> Input File <==

--------------------------------------------------------------------------
molecule {
-1 3
C           0.000000           0.000000           0.000000
H           0.000000           0.000000           1.483779
}

set {
basis              cc-pvtz
reference          uks
maxiter            500
DAMPING_PERCENTAGE 1
E_CONVERGENCE      1.0E-8
D_CONVERGENCE      1.0E-8
DIIS_MAX_VECS      400
MBIS_MAXITER       8000
guess              read
}

E, wfn = energy('b3lyp', restart_file='last_wfn', return_wfn=True)
properties('b3lyp','MBIS_CHARGES', wfn=wfn)
wfn.to_file('last_wfn')
--------------------------------------------------------------------------

    Molecular point group: c2v
  Charge       = -1
  Multiplicity = 3
  Basis Set: CC-PVTZ
    Blend: CC-PVTZ
  Basis Set: (CC-PVTZ AUX)
    Blend: CC-PVTZ-JKFIT
  @DF-UKS Final Energy:   -38.50499412972620
    Total Energy =                        -38.5049941297261995
 Dipole X            :          0.0000000            0.0000000            0.0000000
 Dipole Y            :          0.0000000            0.0000000            0.0000000
 Dipole Z            :         -1.5033497            1.2832253           -0.2201244
 Magnitude           :                                                    0.2201244
    Molecular point group: c2v

    Geometry (in Angstrom), charge = -1, multiplicity = 3:

       Center              X                  Y                   Z               Mass
    ------------   -----------------  -----------------  -----------------  -----------------
         C            0.000000000000     0.000000000000    -0.114960772827    12.000000000000
         H            0.000000000000     0.000000000000     1.368818227173     1.007825032230

  Charge       = -1
  Multiplicity = 3
  Basis Set: CC-PVTZ
    Blend: CC-PVTZ
  Basis Set: (CC-PVTZ AUX)
    Blend: CC-PVTZ-JKFIT

    Orbital Energies [Eh]
    ---------------------

    Alpha Occupied:

       1A1    -9.922345     2A1    -0.272010     3A1     0.000168
       1B2     0.069477     1B1     0.069477

    Alpha Virtual:

       4A1     0.263825     5A1     0.517804     2B2     0.561086
       2B1     0.561086     6A1     0.584892     7A1     0.721603
       3B2     0.835449     3B1     0.835449     1A2     0.953119
       8A1     0.953119     9A1     1.149181     4B2     1.219945
       4B1     1.219945    10A1     1.473550     5B2     2.242998
       5B1     2.242998    11A1     2.433310    12A1     2.749927
       6B2     2.873444     6B1     2.873444     2A2     2.922591
      13A1     2.922591    14A1     2.954160     7B2     2.974159
       7B1     2.974159     3A2     3.228769    15A1     3.228769
       8B1     3.329244     8B2     3.329244    16A1     3.495532
       4A2     3.609621    17A1     3.609624     9B2     3.958515
       9B1     3.958515    18A1     3.962206    10B2     4.300130
      10B1     4.300130    19A1     4.484297    20A1     5.944541

    Beta Occupied:

       1A1    -9.897565     2A1    -0.188541     3A1     0.022504

    Beta Virtual:

       1B2     0.230622     1B1     0.230622     4A1     0.279401
       5A1     0.523620     6A1     0.603325     2B2     0.632135
       2B1     0.632135     7A1     0.768598     3B2     0.855532
       3B1     0.855532     1A2     1.029576     8A1     1.029576
       9A1     1.170808     4B2     1.245242     4B1     1.245242
      10A1     1.482949     5B2     2.322063     5B1     2.322063
      11A1     2.454034    12A1     2.752806     6B2     2.910560
       6B1     2.910560     2A2     2.979228    13A1     2.979228
      14A1     2.987766     7B2     3.070513     7B1     3.070513
       3A2     3.347131    15A1     3.347131     8B2     3.393349
       8B1     3.393349    16A1     3.534421     4A2     3.617315
      17A1     3.617318     9B2     3.954770     9B1     3.954770
      18A1     3.989963    10B2     4.309601    10B1     4.309601
      19A1     4.484253    20A1     5.967483

    Final Occupation by Irrep:
             A1    A2    B1    B2
    DOCC [     3,    0,    0,    0 ]
    SOCC [     0,    0,    1,    1 ]
    NA   [     3,    0,    1,    1 ]
    NB   [     3,    0,    0,    0 ]

  @DF-UKS Final Energy:   -38.50499412961770

   => Energetics <=

    Nuclear Repulsion Energy =              2.1398491716219197
    One-Electron Energy =                 -57.7828677008729841
    Two-Electron Energy =                  21.8351345535783636
    DFT Exchange-Correlation Energy =      -4.6971101539449993
    Empirical Dispersion Energy =           0.0000000000000000
    VV10 Nonlocal Energy =                  0.0000000000000000
    Total Energy =                        -38.5049941296176996

  UHF NO Occupations:
  HONO-2 :    3 A1 1.9969132
  HONO-1 :    1 B1 1.0000000
  HONO-0 :    1 B2 1.0000000
  LUNO+0 :    4 A1 0.0030868
  LUNO+1 :    5 A1 0.0009085
  LUNO+2 :    6 A1 0.0000011
  LUNO+3 :    7 A1 0.0000000

Computation Completed

Properties will be evaluated at   0.000000,   0.000000,   0.000000 [a0]

Properties computed using the B3LYP density matrix

 Multipole Moments:

 ------------------------------------------------------------------------------------
     Multipole            Electronic (a.u.)      Nuclear  (a.u.)        Total (a.u.)
 ------------------------------------------------------------------------------------

 L = 1.  Multiply by 2.5417464519 to convert [e a0] to [Debye]
 Dipole X            :          0.0000000            0.0000000            0.0000000
 Dipole Y            :          0.0000000            0.0000000            0.0000000
 Dipole Z            :         -1.5033497            1.2832253           -0.2201244
 Magnitude           :                                                    0.2201244

 L = 2.  Multiply by 1.3450342976 to convert [e a0^2] to [Debye ang]
 Quadrupole XX       :         -8.2162524            0.0000000           -8.2162524
 Quadrupole XY       :          0.0000000            0.0000000            0.0000000
 Quadrupole XZ       :          0.0000000            0.0000000            0.0000000
 Quadrupole YY       :         -8.2162524            0.0000000           -8.2162524
 Quadrupole YZ       :          0.0000000            0.0000000            0.0000000
 Quadrupole ZZ       :        -17.0013578            6.9741440          -10.0272138
 Traceless XX        :          2.9283685           -2.3247147            0.6036538
 Traceless YY        :          2.9283685           -2.3247147            0.6036538
 Traceless ZZ        :         -5.8567369            4.6494293           -1.2073076

 ------------------------------------------------------------------------------------
  ==> Computing MBIS Charges <==

  Electron Count from Grid (Expected Number):  8.00000 ( 8.00000)
  Difference:  0.00000

  MBIS Charges: (a.u.)
   Center  Symbol  Z      Pop.       Charge
      1       C    6    6.778720   -0.778720
      2       H    1    1.221280   -0.221280

  MBIS Dipoles: [e a0]
   Center  Symbol  Z        X           Y           Z
      1       C    6   -0.000000   -0.000000    0.202078
      2       H    1   -0.000000    0.000000   -0.018993

  MBIS Quadrupoles: [e a0^2]
   Center  Symbol  Z      XX        XY        XZ        YY        YZ        ZZ
      1       C    6   -6.8603    0.0000   -0.0000   -6.8603    0.0000   -6.9050
      2       H    1   -1.3560   -0.0000   -0.0000   -1.3560    0.0000   -1.4188

  MBIS Octupoles: [e a0^3]
   Center  Symbol  Z      XXX       XXY       XXZ       XYY       XYZ       XZZ       YYY       YYZ       YZZ       ZZZ
      1       C    6    0.0000   -0.0000    0.1656   -0.0000   -0.0000   -0.0000   -0.0000    0.1656    0.0000   -0.6953
      2       H    1   -0.0000    0.0000   -0.1153   -0.0000   -0.0000   -0.0000    0.0000   -0.1153    0.0000   -0.2103

  MBIS Radial Moments:
   Center  Symbol  Z      [a0^2]      [a0^3]      [a0^4]
      1       C    6   20.625562   57.960191   192.403619
      2       H    1    4.130771   10.963638   34.368687

  MBIS Valence Widths: [a0]
   Center  Symbol  Z     Width
      1       C    6    0.587468
      2       H    1    0.528652

*** tstop() called on Mac.lan at Sun Aug 10 17:36:17 2025
Module time:
	user time   =       3.20 seconds =       0.05 minutes
	system time =       1.63 seconds =       0.03 minutes
	total time  =          0 seconds =       0.00 minutes
Total time:
	user time   =      14.44 seconds =       0.24 minutes
	system time =       3.94 seconds =       0.07 minutes
	total time  =          2 seconds =       0.03 minutes

    Psi4 stopped on: Sunday, 10 August 2025 05:36PM
    Psi4 wall time for execution: 0:00:01.79

*** Psi4 exiting successfully. Buy a developer a beer!
