                               Psi4 1.9.1 release

  ==> Input File <==

--------------------------------------------------------------------------
molecule {
-1 3
O           0.000000           0.000000           0.000000
N           0.000000           0.000000           0.890883
}

set {
basis              cc-pvtz
reference          uks
maxiter            500
DAMPING_PERCENTAGE 1
E_CONVERGENCE      1.0E-8
D_CONVERGENCE      1.0E-8
DIIS_MAX_VECS      400
MBIS_MAXITER       8000
guess              read
}

E, wfn = energy('b3lyp', restart_file='last_wfn', return_wfn=True)
properties('b3lyp','MBIS_CHARGES', wfn=wfn)
wfn.to_file('last_wfn')
--------------------------------------------------------------------------

    Molecular point group: c2v
  Charge       = -1
  Multiplicity = 3
  Basis Set: CC-PVTZ
    Blend: CC-PVTZ
  Basis Set: (CC-PVTZ AUX)
    Blend: CC-PVTZ-JKFIT
  @DF-UKS Final Energy:  -129.53598816114169
    Total Energy =                       -129.5359881611416881
 Dipole X            :          0.0000000            0.0000000            0.0000000
 Dipole Y            :          0.0000000            0.0000000            0.0000000
 Dipole Z            :         -0.7872705           -0.0033779           -0.7906484
 Magnitude           :                                                    0.7906484
    Molecular point group: c2v

    Geometry (in Angstrom), charge = -1, multiplicity = 3:

       Center              X                  Y                   Z               Mass
    ------------   -----------------  -----------------  -----------------  -----------------
         O            0.000000000000     0.000000000000    -0.415864567943    15.994914619570
         N            0.000000000000     0.000000000000     0.475018432057    14.003074004430

  Charge       = -1
  Multiplicity = 3
  Basis Set: CC-PVTZ
    Blend: CC-PVTZ
  Basis Set: (CC-PVTZ AUX)
    Blend: CC-PVTZ-JKFIT

    Orbital Energies [Eh]
    ---------------------

    Alpha Occupied:

       1A1   -18.825461     2A1   -13.964445     3A1    -1.065152
       4A1    -0.288237     1B2    -0.279178     1B1    -0.279178
       5A1    -0.123796     2B1     0.283937     2B2     0.283937

    Alpha Virtual:

       6A1     0.517130     3B1     0.686879     3B2     0.686879
       7A1     0.717234     8A1     0.835795     4B2     0.906999
       4B1     0.906999     9A1     1.256760     1A2     1.256761
      10A1     1.414476    11A1     1.530612     5B1     1.639934
       5B2     1.639934     2A2     1.955515    12A1     1.955516
      13A1     2.298169     6B1     2.415833     6B2     2.415833
      14A1     2.853246     7B1     3.123914     7B2     3.123914
      15A1     3.581375    16A1     4.077073     8B2     4.112017
       8B1     4.112017     9B2     4.201839     9B1     4.201839
      17A1     4.276418     3A2     4.276418    10B1     4.566841
      10B2     4.566841    18A1     4.761052     4A2     4.761053
      19A1     5.048123    11B1     5.234995    11B2     5.234995
      12B2     5.518896    12B1     5.518896    20A1     6.086157
       5A2     6.514662    21A1     6.514665    22A1     6.584099
       6A2     6.584099    13B1     6.950447    13B2     6.950447
      23A1     7.179728    24A1     7.808800    14B1     8.430714
      14B2     8.430714    25A1     9.414135    26A1    21.633594

    Beta Occupied:

       1A1   -18.806316     2A1   -13.945432     3A1    -1.037825
       4A1    -0.236267     1B2    -0.215036     1B1    -0.215036
       5A1    -0.066561

    Beta Virtual:

       2B1     0.431593     2B2     0.431593     6A1     0.528798
       3B1     0.719420     3B2     0.719420     7A1     0.738135
       8A1     0.863447     4B2     0.957918     4B1     0.957918
       1A2     1.298561     9A1     1.298561    10A1     1.451149
      11A1     1.549034     5B1     1.677251     5B2     1.677251
      12A1     2.007553     2A2     2.007554    13A1     2.319700
       6B1     2.449827     6B2     2.449827    14A1     2.886829
       7B1     3.178598     7B2     3.178598    15A1     3.610623
      16A1     4.104345     8B2     4.169630     8B1     4.169630
       9B2     4.252243     9B1     4.252243    17A1     4.307797
       3A2     4.307797    10B1     4.604262    10B2     4.604262
      18A1     4.842343     4A2     4.842343    19A1     5.075188
      11B1     5.267027    11B2     5.267027    12B2     5.568489
      12B1     5.568489    20A1     6.113923     5A2     6.583746
      21A1     6.583749    22A1     6.624084     6A2     6.624084
      13B1     6.984468    13B2     6.984468    23A1     7.197850
      24A1     7.831586    14B1     8.469240    14B2     8.469240
      25A1     9.448180    26A1    21.660788

    Final Occupation by Irrep:
             A1    A2    B1    B2
    DOCC [     5,    0,    1,    1 ]
    SOCC [     0,    0,    1,    1 ]
    NA   [     5,    0,    2,    2 ]
    NB   [     5,    0,    1,    1 ]

  @DF-UKS Final Energy:  -129.53598816089217

   => Energetics <=

    Nuclear Repulsion Energy =             33.2635416744061772
    One-Electron Energy =                -247.4791879984280172
    Two-Electron Energy =                  97.6951988286695041
    DFT Exchange-Correlation Energy =     -13.0155406655398576
    Empirical Dispersion Energy =           0.0000000000000000
    VV10 Nonlocal Energy =                  0.0000000000000000
    Total Energy =                       -129.5359881608921739

  UHF NO Occupations:
  HONO-2 :    5 A1 1.9995680
  HONO-1 :    2 B2 1.0000000
  HONO-0 :    2 B1 1.0000000
  LUNO+0 :    6 A1 0.0004320
  LUNO+1 :    3 B2 0.0003634
  LUNO+2 :    3 B1 0.0003634
  LUNO+3 :    7 A1 0.0001357

Computation Completed

Properties will be evaluated at   0.000000,   0.000000,   0.000000 [a0]

Properties computed using the B3LYP density matrix

 Multipole Moments:

 ------------------------------------------------------------------------------------
     Multipole            Electronic (a.u.)      Nuclear  (a.u.)        Total (a.u.)
 ------------------------------------------------------------------------------------

 L = 1.  Multiply by 2.5417464519 to convert [e a0] to [Debye]
 Dipole X            :          0.0000000            0.0000000            0.0000000
 Dipole Y            :          0.0000000            0.0000000            0.0000000
 Dipole Z            :         -0.7872705           -0.0033779           -0.7906484
 Magnitude           :                                                    0.7906484

 L = 2.  Multiply by 1.3450342976 to convert [e a0^2] to [Debye ang]
 Quadrupole XX       :         -9.3692807            0.0000000           -9.3692807
 Quadrupole XY       :          0.0000000            0.0000000            0.0000000
 Quadrupole XZ       :          0.0000000            0.0000000            0.0000000
 Quadrupole YY       :         -9.3692807            0.0000000           -9.3692807
 Quadrupole YZ       :          0.0000000            0.0000000            0.0000000
 Quadrupole ZZ       :        -22.5970512           10.5812232          -12.0158279
 Traceless XX        :          4.4092568           -3.5270744            0.8821824
 Traceless YY        :          4.4092568           -3.5270744            0.8821824
 Traceless ZZ        :         -8.8185137            7.0541488           -1.7643648

 ------------------------------------------------------------------------------------
  ==> Computing MBIS Charges <==

  Electron Count from Grid (Expected Number): 16.00000 (16.00000)
  Difference: -0.00000

  MBIS Charges: (a.u.)
   Center  Symbol  Z      Pop.       Charge
      1       O    8    8.127992   -0.127992
      2       N    7    7.872007   -0.872007

  MBIS Dipoles: [e a0]
   Center  Symbol  Z        X           Y           Z
      1       O    8   -0.000000    0.000000    0.249783
      2       N    7    0.000000   -0.000000   -0.358255

  MBIS Quadrupoles: [e a0^2]
   Center  Symbol  Z      XX        XY        XZ        YY        YZ        ZZ
      1       O    8   -3.5611    0.0000    0.0000   -3.5611    0.0000   -4.0823
      2       N    7   -5.8081   -0.0000    0.0000   -5.8081   -0.0000   -6.1160

  MBIS Octupoles: [e a0^3]
   Center  Symbol  Z      XXX       XXY       XXZ       XYY       XYZ       XZZ       YYY       YYZ       YZZ       ZZZ
      1       O    8    0.0000   -0.0000    0.3824    0.0000   -0.0000    0.0000   -0.0000    0.3824   -0.0000    0.5651
      2       N    7    0.0000   -0.0000   -1.0553    0.0000   -0.0000    0.0000   -0.0000   -1.0553   -0.0000    0.1561

  MBIS Radial Moments:
   Center  Symbol  Z      [a0^2]      [a0^3]      [a0^4]
      1       O    8   11.204624   21.087990   47.919538
      2       N    7   17.732297   42.898946   122.789364

  MBIS Valence Widths: [a0]
   Center  Symbol  Z     Width
      1       O    8    0.378371
      2       N    7    0.488964

*** tstop() called on Mac.lan at Sun Aug 10 17:45:53 2025
Module time:
	user time   =       6.14 seconds =       0.10 minutes
	system time =       2.13 seconds =       0.04 minutes
	total time  =          1 seconds =       0.02 minutes
Total time:
	user time   =     130.50 seconds =       2.17 minutes
	system time =       5.46 seconds =       0.09 minutes
	total time  =         14 seconds =       0.23 minutes

    Psi4 stopped on: Sunday, 10 August 2025 05:45PM
    Psi4 wall time for execution: 0:00:13.71

*** Psi4 exiting successfully. Buy a developer a beer!
