                               Psi4 1.9.1 release

  ==> Input File <==

--------------------------------------------------------------------------
molecule {
-1 2
H           0.000000           0.000000           0.000000
H           0.000000           0.000000           0.707716
}

set {
basis              cc-pvtz
reference          uks
maxiter            500
DAMPING_PERCENTAGE 1
E_CONVERGENCE      1.0E-8
D_CONVERGENCE      1.0E-8
DIIS_MAX_VECS      400
MBIS_MAXITER       8000
guess              read
}

E, wfn = energy('b3lyp', restart_file='last_wfn', return_wfn=True)
properties('b3lyp','MBIS_CHARGES', wfn=wfn)
wfn.to_file('last_wfn')
--------------------------------------------------------------------------

    Molecular point group: d2h
  Charge       = -1
  Multiplicity = 2
  Basis Set: CC-PVTZ
    Blend: CC-PVTZ
  Basis Set: (CC-PVTZ AUX)
    Blend: CC-PVTZ-JKFIT
  @DF-UKS Final Energy:    -1.03853744070939
    Total Energy =                         -1.0385374407093932
 Dipole X            :          0.0000000            0.0000000            0.0000000
 Dipole Y            :          0.0000000            0.0000000            0.0000000
 Dipole Z            :          0.0000000            0.0000000            0.0000000
 Magnitude           :                                                    0.0000000
    Molecular point group: d2h

    Geometry (in Angstrom), charge = -1, multiplicity = 2:

       Center              X                  Y                   Z               Mass
    ------------   -----------------  -----------------  -----------------  -----------------
         H            0.000000000000     0.000000000000    -0.353858000000     1.007825032230
         H            0.000000000000     0.000000000000     0.353858000000     1.007825032230

  Charge       = -1
  Multiplicity = 2
  Basis Set: CC-PVTZ
    Blend: CC-PVTZ
  Basis Set: (CC-PVTZ AUX)
    Blend: CC-PVTZ-JKFIT

    Orbital Energies [Eh]
    ---------------------

    Alpha Occupied:

       1Ag    -0.148959     1B1u    0.224235

    Alpha Virtual:

       2Ag     0.415056     2B1u    0.731240     1B2u    0.803529
       1B3u    0.803529     3Ag     1.189871     1B2g    1.214596
       1B3g    1.214596     3B1u    1.642481     4B1u    2.330987
       4Ag     2.363762     5Ag     3.187733     1B1g    3.187733
       2B2u    3.400643     2B3u    3.400643     6Ag     3.666500
       2B2g    3.866502     2B3g    3.866502     5B1u    4.129354
       1Au     4.129354     3B2u    4.144761     3B3u    4.144761
       6B1u    4.755429     3B2g    5.828454     3B3g    5.828454
       7Ag     5.895430     7B1u    7.014823

    Beta Occupied:

       1Ag    -0.133806

    Beta Virtual:

       1B1u    0.319109     2Ag     0.434944     2B1u    0.764658
       1B2u    0.808288     1B3u    0.808288     3Ag     1.228776
       1B2g    1.239631     1B3g    1.239631     3B1u    1.669438
       4B1u    2.357466     4Ag     2.368801     5Ag     3.190600
       1B1g    3.190600     2B2u    3.401290     2B3u    3.401290
       6Ag     3.696634     2B2g    3.891224     2B3g    3.891224
       5B1u    4.141205     1Au     4.141205     3B2u    4.164981
       3B3u    4.164981     6B1u    4.780424     3B2g    5.841438
       3B3g    5.841438     7Ag     5.910487     7B1u    7.029686

    Final Occupation by Irrep:
             Ag   B1g   B2g   B3g    Au   B1u   B2u   B3u
    DOCC [     1,    0,    0,    0,    0,    0,    0,    0 ]
    SOCC [     0,    0,    0,    0,    0,    1,    0,    0 ]
    NA   [     1,    0,    0,    0,    0,    1,    0,    0 ]
    NB   [     1,    0,    0,    0,    0,    0,    0,    0 ]

  @DF-UKS Final Energy:    -1.03853744092860

   => Energetics <=

    Nuclear Repulsion Energy =              0.7477253738363977
    One-Electron Energy =                  -2.9827156662117527
    Two-Electron Energy =                   1.9310379532017996
    DFT Exchange-Correlation Energy =      -0.7345851017550407
    Empirical Dispersion Energy =           0.0000000000000000
    VV10 Nonlocal Energy =                  0.0000000000000000
    Total Energy =                         -1.0385374409285959

  UHF NO Occupations:
  HONO-1 :    1 Ag 1.9996865
  HONO-0 :    1B1u 1.0000000
  LUNO+0 :    2 Ag 0.0003135
  LUNO+1 :    3 Ag 0.0000000
  LUNO+2 :    4 Ag 0.0000000
  LUNO+3 :    2B1u 0.0000000

Computation Completed

Properties will be evaluated at   0.000000,   0.000000,   0.000000 [a0]

Properties computed using the B3LYP density matrix

 Multipole Moments:

 ------------------------------------------------------------------------------------
     Multipole            Electronic (a.u.)      Nuclear  (a.u.)        Total (a.u.)
 ------------------------------------------------------------------------------------

 L = 1.  Multiply by 2.5417464519 to convert [e a0] to [Debye]
 Dipole X            :          0.0000000            0.0000000            0.0000000
 Dipole Y            :          0.0000000            0.0000000            0.0000000
 Dipole Z            :          0.0000000            0.0000000            0.0000000
 Magnitude           :                                                    0.0000000

 L = 2.  Multiply by 1.3450342976 to convert [e a0^2] to [Debye ang]
 Quadrupole XX       :         -4.1588896            0.0000000           -4.1588896
 Quadrupole XY       :          0.0000000            0.0000000            0.0000000
 Quadrupole XZ       :          0.0000000            0.0000000            0.0000000
 Quadrupole YY       :         -4.1588896            0.0000000           -4.1588896
 Quadrupole YZ       :          0.0000000            0.0000000            0.0000000
 Quadrupole ZZ       :         -9.9038453            0.8943052           -9.0095400
 Traceless XX        :          1.9149852           -0.2981017            1.6168835
 Traceless YY        :          1.9149852           -0.2981017            1.6168835
 Traceless ZZ        :         -3.8299704            0.5962035           -3.2337669

 ------------------------------------------------------------------------------------
  ==> Computing MBIS Charges <==

  Electron Count from Grid (Expected Number):  3.00000 ( 3.00000)
  Difference: -0.00000

  MBIS Charges: (a.u.)
   Center  Symbol  Z      Pop.       Charge
      1       H    1    1.500000   -0.500000
      2       H    1    1.500000   -0.500000

  MBIS Dipoles: [e a0]
   Center  Symbol  Z        X           Y           Z
      1       H    1    0.000000   -0.000000    0.323692
      2       H    1    0.000000   -0.000000   -0.323692

  MBIS Quadrupoles: [e a0^2]
   Center  Symbol  Z      XX        XY        XZ        YY        YZ        ZZ
      1       H    1   -2.0794    0.0000   -0.0000   -2.0794    0.0000   -3.8483
      2       H    1   -2.0794    0.0000    0.0000   -2.0794   -0.0000   -3.8483

  MBIS Octupoles: [e a0^3]
   Center  Symbol  Z      XXX       XXY       XXZ       XYY       XYZ       XZZ       YYY       YYZ       YZZ       ZZZ
      1       H    1   -0.0000   -0.0000    0.9047    0.0000   -0.0000   -0.0000    0.0000    0.9047   -0.0000    2.0024
      2       H    1    0.0000   -0.0000   -0.9047   -0.0000    0.0000    0.0000   -0.0000   -0.9047   -0.0000   -2.0024

  MBIS Radial Moments:
   Center  Symbol  Z      [a0^2]      [a0^3]      [a0^4]
      1       H    1    8.007181   27.240760   106.808623
      2       H    1    8.007181   27.240760   106.808623

  MBIS Valence Widths: [a0]
   Center  Symbol  Z     Width
      1       H    1    0.649392
      2       H    1    0.649392

*** tstop() called on Mac.lan at Sun Aug 10 17:25:54 2025
Module time:
	user time   =       0.74 seconds =       0.01 minutes
	system time =       1.09 seconds =       0.02 minutes
	total time  =          0 seconds =       0.00 minutes
Total time:
	user time   =       1.78 seconds =       0.03 minutes
	system time =       3.28 seconds =       0.05 minutes
	total time  =          0 seconds =       0.00 minutes

    Psi4 stopped on: Sunday, 10 August 2025 05:25PM
    Psi4 wall time for execution: 0:00:00.83

*** Psi4 exiting successfully. Buy a developer a beer!
