                               Psi4 1.9.1 release

  ==> Input File <==

--------------------------------------------------------------------------
molecule {
-1 2
O           0.000000           0.000000           0.000000
C           0.000000           0.000000           1.546896
}

set {
basis              cc-pvtz
reference          uks
maxiter            500
DAMPING_PERCENTAGE 1
E_CONVERGENCE      1.0E-8
D_CONVERGENCE      1.0E-8
DIIS_MAX_VECS      400
MBIS_MAXITER       8000
guess              read
}

E, wfn = energy('b3lyp', restart_file='last_wfn', return_wfn=True)
properties('b3lyp','MBIS_CHARGES', wfn=wfn)
wfn.to_file('last_wfn')
--------------------------------------------------------------------------

    Molecular point group: c2v
  Charge       = -1
  Multiplicity = 2
  Basis Set: CC-PVTZ
    Blend: CC-PVTZ
  Basis Set: (CC-PVTZ AUX)
    Blend: CC-PVTZ-JKFIT
  @DF-UKS Final Energy:  -113.21503688122036
    Total Energy =                       -113.2150368812203567
 Dipole X            :          0.0000000            0.0000000            0.0000000
 Dipole Y            :          0.0000000            0.0000000            0.0000000
 Dipole Z            :         -0.2956988           -0.0031861           -0.2988849
 Magnitude           :                                                    0.2988849
    Molecular point group: c2v

    Geometry (in Angstrom), charge = -1, multiplicity = 2:

       Center              X                  Y                   Z               Mass
    ------------   -----------------  -----------------  -----------------  -----------------
         O            0.000000000000     0.000000000000    -0.663075856892    15.994914619570
         C            0.000000000000     0.000000000000     0.883820143108    12.000000000000

  Charge       = -1
  Multiplicity = 2
  Basis Set: CC-PVTZ
    Blend: CC-PVTZ
  Basis Set: (CC-PVTZ AUX)
    Blend: CC-PVTZ-JKFIT

    Orbital Energies [Eh]
    ---------------------

    Alpha Occupied:

       1A1   -18.853986     2A1    -9.985363     3A1    -0.638327
       4A1    -0.255401     1B1    -0.059983     5A1    -0.051094
       1B2    -0.038390     2B1     0.095522

    Alpha Virtual:

       2B2     0.186113     6A1     0.359248     3B1     0.545294
       3B2     0.560471     7A1     0.575429     8A1     0.594965
       9A1     0.821710     4B1     0.895843     4B2     0.899104
       1A2     0.931528    10A1     0.934294     5B1     1.048232
       5B2     1.048952    11A1     1.297829    12A1     1.503754
       2A2     1.785631    13A1     1.786161     6B1     1.967799
       6B2     1.970479    14A1     2.195350     7B1     2.282410
       7B2     2.296569    15A1     2.580026     8B1     2.947935
       8B2     2.948826     3A2     2.990349    16A1     2.992862
       9B1     3.146543     9B2     3.152897    17A1     3.190767
       4A2     3.217318    18A1     3.223971    10B1     3.417953
      10B2     3.425199    19A1     3.511838    11B1     4.027132
      20A1     4.028091    11B2     4.031108    21A1     5.182498
      12B1     5.433179    12B2     5.433215     5A2     5.494353
      22A1     5.494778    13B2     5.765355    13B1     5.768377
      23A1     6.193629     6A2     6.520020    24A1     6.521063
      14B1     6.850860    14B2     6.852889    25A1     7.469342
      26A1     8.629490

    Beta Occupied:

       1A1   -18.848639     2A1    -9.972855     3A1    -0.625366
       4A1    -0.220314     5A1    -0.036790     1B2    -0.036012
       1B1    -0.013065

    Beta Virtual:

       2B2     0.198713     2B1     0.232919     6A1     0.369611
       3B2     0.569614     7A1     0.585197     3B1     0.595021
       8A1     0.611905     9A1     0.826665     4B2     0.899004
       4B1     0.913371     1A2     0.965019    10A1     0.965266
       5B2     1.051295     5B1     1.073080    11A1     1.308740
      12A1     1.508224     2A2     1.794985    13A1     1.795096
       6B2     1.971778     6B1     1.991307    14A1     2.204588
       7B2     2.307677     7B1     2.341859    15A1     2.594650
       8B2     2.994482     8B1     2.994629    16A1     3.018608
       3A2     3.019183     9B2     3.158550     9B1     3.187243
      17A1     3.205113    18A1     3.279501     4A2     3.279587
      10B2     3.429106    10B1     3.459692    19A1     3.531150
      11B2     4.032093    20A1     4.040286    11B1     4.053510
      21A1     5.191530    12B2     5.445194    12B1     5.445200
       5A2     5.502346    22A1     5.502597    13B2     5.764896
      13B1     5.782406    23A1     6.200558     6A2     6.539546
      24A1     6.539651    14B2     6.852152    14B1     6.871432
      25A1     7.476821    26A1     8.639110

    Final Occupation by Irrep:
             A1    A2    B1    B2
    DOCC [     5,    0,    1,    1 ]
    SOCC [     0,    0,    1,    0 ]
    NA   [     5,    0,    2,    1 ]
    NB   [     5,    0,    1,    1 ]

  @DF-UKS Final Energy:  -113.21503684224173

   => Energetics <=

    Nuclear Repulsion Energy =             16.4203062857231501
    One-Electron Energy =                -191.5890516347382970
    Two-Electron Energy =                  73.2656241444120013
    DFT Exchange-Correlation Energy =     -11.3119156376385757
    Empirical Dispersion Energy =           0.0000000000000000
    VV10 Nonlocal Energy =                  0.0000000000000000
    Total Energy =                       -113.2150368422417301

  UHF NO Occupations:
  HONO-2 :    1 B1 1.9990480
  HONO-1 :    5 A1 1.9989872
  HONO-0 :    2 B1 1.0000000
  LUNO+0 :    6 A1 0.0010128
  LUNO+1 :    3 B1 0.0009520
  LUNO+2 :    2 B2 0.0008338
  LUNO+3 :    7 A1 0.0000612

Computation Completed

Properties will be evaluated at   0.000000,   0.000000,   0.000000 [a0]

Properties computed using the B3LYP density matrix

 Multipole Moments:

 ------------------------------------------------------------------------------------
     Multipole            Electronic (a.u.)      Nuclear  (a.u.)        Total (a.u.)
 ------------------------------------------------------------------------------------

 L = 1.  Multiply by 2.5417464519 to convert [e a0] to [Debye]
 Dipole X            :          0.0000000            0.0000000            0.0000000
 Dipole Y            :          0.0000000            0.0000000            0.0000000
 Dipole Z            :         -0.2956985           -0.0031861           -0.2988846
 Magnitude           :                                                    0.2988846

 L = 2.  Multiply by 1.3450342976 to convert [e a0^2] to [Debye ang]
 Quadrupole XX       :        -11.2294034            0.0000000          -11.2294034
 Quadrupole XY       :          0.0000000            0.0000000            0.0000000
 Quadrupole XZ       :          0.0000000            0.0000000            0.0000000
 Quadrupole YY       :         -9.8432859            0.0000000           -9.8432859
 Quadrupole YZ       :          0.0000000            0.0000000            0.0000000
 Quadrupole ZZ       :        -43.3430932           29.2976765          -14.0454167
 Traceless XX        :         10.2425241           -9.7658922            0.4766319
 Traceless YY        :         11.6286416           -9.7658922            1.8627494
 Traceless ZZ        :        -21.8711657           19.5317844           -2.3393814

 ------------------------------------------------------------------------------------
  ==> Computing MBIS Charges <==

  Electron Count from Grid (Expected Number): 15.00000 (15.00000)
  Difference: -0.00000

  MBIS Charges: (a.u.)
   Center  Symbol  Z      Pop.       Charge
      1       O    8    8.552470   -0.552470
      2       C    6    6.447529   -0.447529

  MBIS Dipoles: [e a0]
   Center  Symbol  Z        X           Y           Z
      1       O    8   -0.000000   -0.000000    0.057462
      2       C    6   -0.000000   -0.000000   -0.301157

  MBIS Quadrupoles: [e a0^2]
   Center  Symbol  Z      XX        XY        XZ        YY        YZ        ZZ
      1       O    8   -4.6990   -0.0000    0.0000   -4.4924    0.0000   -4.5520
      2       C    6   -6.5304    0.0000    0.0000   -5.3509    0.0000   -6.2276

  MBIS Octupoles: [e a0^3]
   Center  Symbol  Z      XXX       XXY       XXZ       XYY       XYZ       XZZ       YYY       YYZ       YZZ       ZZZ
      1       O    8   -0.0000   -0.0000    0.0580   -0.0000    0.0000   -0.0000   -0.0000    0.0614    0.0000   -0.0493
      2       C    6   -0.0000   -0.0000   -0.5554   -0.0000    0.0000    0.0000    0.0000   -0.0720    0.0000   -0.0732

  MBIS Radial Moments:
   Center  Symbol  Z      [a0^2]      [a0^3]      [a0^4]
      1       O    8   13.743469   27.502133   65.711750
      2       C    6   18.108853   48.969248   155.758247

  MBIS Valence Widths: [a0]
   Center  Symbol  Z     Width
      1       O    8    0.408800
      2       C    6    0.569626

*** tstop() called on Mac.lan at Sun Aug 10 17:43:34 2025
Module time:
	user time   =       8.30 seconds =       0.14 minutes
	system time =       1.20 seconds =       0.02 minutes
	total time  =          1 seconds =       0.02 minutes
Total time:
	user time   =      23.68 seconds =       0.39 minutes
	system time =       3.63 seconds =       0.06 minutes
	total time  =          2 seconds =       0.03 minutes

    Psi4 stopped on: Sunday, 10 August 2025 05:43PM
    Psi4 wall time for execution: 0:00:02.63

*** Psi4 exiting successfully. Buy a developer a beer!
