                               Psi4 1.9.1 release

  ==> Input File <==

--------------------------------------------------------------------------
molecule {
-1 2
H           0.000000           0.000000           0.000000
H           0.000000           0.000000           1.172007
}

set {
basis              cc-pvtz
reference          uks
maxiter            500
DAMPING_PERCENTAGE 1
E_CONVERGENCE      1.0E-8
D_CONVERGENCE      1.0E-8
DIIS_MAX_VECS      400
MBIS_MAXITER       8000
guess              read
}

E, wfn = energy('b3lyp', restart_file='last_wfn', return_wfn=True)
properties('b3lyp','MBIS_CHARGES', wfn=wfn)
wfn.to_file('last_wfn')
--------------------------------------------------------------------------

    Molecular point group: d2h
  Charge       = -1
  Multiplicity = 2
  Basis Set: CC-PVTZ
    Blend: CC-PVTZ
  Basis Set: (CC-PVTZ AUX)
    Blend: CC-PVTZ-JKFIT
  @DF-UKS Final Energy:    -1.05812749419954
    Total Energy =                         -1.0581274941995384
 Dipole X            :          0.0000000            0.0000000            0.0000000
 Dipole Y            :          0.0000000            0.0000000            0.0000000
 Dipole Z            :          0.0000000            0.0000000            0.0000000
 Magnitude           :                                                    0.0000000
    Molecular point group: d2h

    Geometry (in Angstrom), charge = -1, multiplicity = 2:

       Center              X                  Y                   Z               Mass
    ------------   -----------------  -----------------  -----------------  -----------------
         H            0.000000000000     0.000000000000    -0.586003500000     1.007825032230
         H            0.000000000000     0.000000000000     0.586003500000     1.007825032230

  Charge       = -1
  Multiplicity = 2
  Basis Set: CC-PVTZ
    Blend: CC-PVTZ
  Basis Set: (CC-PVTZ AUX)
    Blend: CC-PVTZ-JKFIT

    Orbital Energies [Eh]
    ---------------------

    Alpha Occupied:

       1Ag    -0.066918     1B1u    0.165645

    Alpha Virtual:

       2Ag     0.470655     2B1u    0.587643     1B3u    0.794837
       1B2u    0.794837     3Ag     1.040800     1B3g    1.116045
       1B2g    1.116045     3B1u    1.526438     4Ag     2.562463
       4B1u    2.693306     2B3u    3.175158     2B2u    3.175158
       5Ag     3.271672     6Ag     3.326147     1B1g    3.326147
       5B1u    3.726855     1Au     3.726855     3B3u    3.912149
       3B2u    3.912149     2B3g    3.990494     2B2g    3.990494
       6B1u    4.086968     3B3g    4.552503     3B2g    4.552503
       7Ag     4.673055     7B1u    5.859508

    Beta Occupied:

       1Ag    -0.025958

    Beta Virtual:

       1B1u    0.266765     2Ag     0.489022     2B1u    0.637254
       1B3u    0.812167     1B2u    0.812167     3Ag     1.083705
       1B2g    1.155134     1B3g    1.155134     3B1u    1.568704
       4Ag     2.604769     4B1u    2.741459     2B3u    3.195090
       2B2u    3.195090     5Ag     3.298658     6Ag     3.353403
       1B1g    3.353403     5B1u    3.760112     1Au     3.760112
       3B3u    3.957872     3B2u    3.957872     2B3g    4.035829
       2B2g    4.035829     6B1u    4.142338     3B3g    4.587401
       3B2g    4.587401     7Ag     4.719166     7B1u    5.890118

    Final Occupation by Irrep:
             Ag   B1g   B2g   B3g    Au   B1u   B2u   B3u
    DOCC [     1,    0,    0,    0,    0,    0,    0,    0 ]
    SOCC [     0,    0,    0,    0,    0,    1,    0,    0 ]
    NA   [     1,    0,    0,    0,    0,    1,    0,    0 ]
    NB   [     1,    0,    0,    0,    0,    0,    0,    0 ]

  @DF-UKS Final Energy:    -1.05812749452856

   => Energetics <=

    Nuclear Repulsion Energy =              0.4515136946025067
    One-Electron Energy =                  -2.5983334285641089
    Two-Electron Energy =                   1.7698384937492013
    DFT Exchange-Correlation Energy =      -0.6811462543161552
    Empirical Dispersion Energy =           0.0000000000000000
    VV10 Nonlocal Energy =                  0.0000000000000000
    Total Energy =                         -1.0581274945285557

  UHF NO Occupations:
  HONO-1 :    1 Ag 1.9992082
  HONO-0 :    1B1u 1.0000000
  LUNO+0 :    2 Ag 0.0007918
  LUNO+1 :    3 Ag 0.0000000
  LUNO+2 :    2B1u 0.0000000
  LUNO+3 :    3B1u 0.0000000

Computation Completed

Properties will be evaluated at   0.000000,   0.000000,   0.000000 [a0]

Properties computed using the B3LYP density matrix

 Multipole Moments:

 ------------------------------------------------------------------------------------
     Multipole            Electronic (a.u.)      Nuclear  (a.u.)        Total (a.u.)
 ------------------------------------------------------------------------------------

 L = 1.  Multiply by 2.5417464519 to convert [e a0] to [Debye]
 Dipole X            :          0.0000000            0.0000000            0.0000000
 Dipole Y            :          0.0000000            0.0000000            0.0000000
 Dipole Z            :          0.0000000            0.0000000            0.0000000
 Magnitude           :                                                    0.0000000

 L = 2.  Multiply by 1.3450342976 to convert [e a0^2] to [Debye ang]
 Quadrupole XX       :         -4.3061875            0.0000000           -4.3061875
 Quadrupole XY       :          0.0000000            0.0000000            0.0000000
 Quadrupole XZ       :          0.0000000            0.0000000            0.0000000
 Quadrupole YY       :         -4.3061875            0.0000000           -4.3061875
 Quadrupole YZ       :          0.0000000            0.0000000            0.0000000
 Quadrupole ZZ       :        -10.4137641            2.4526081           -7.9611560
 Traceless XX        :          2.0358589           -0.8175360            1.2183228
 Traceless YY        :          2.0358589           -0.8175360            1.2183228
 Traceless ZZ        :         -4.0717177            1.6350720           -2.4366457

 ------------------------------------------------------------------------------------
  ==> Computing MBIS Charges <==

  Electron Count from Grid (Expected Number):  3.00000 ( 3.00000)
  Difference: -0.00000

  MBIS Charges: (a.u.)
   Center  Symbol  Z      Pop.       Charge
      1       H    1    1.500000   -0.500000
      2       H    1    1.500000   -0.500000

  MBIS Dipoles: [e a0]
   Center  Symbol  Z        X           Y           Z
      1       H    1    0.000000    0.000000    0.252452
      2       H    1   -0.000000   -0.000000   -0.252452

  MBIS Quadrupoles: [e a0^2]
   Center  Symbol  Z      XX        XY        XZ        YY        YZ        ZZ
      1       H    1   -2.1531    0.0000   -0.0000   -2.1531    0.0000   -2.8083
      2       H    1   -2.1531    0.0000   -0.0000   -2.1531    0.0000   -2.8083

  MBIS Octupoles: [e a0^3]
   Center  Symbol  Z      XXX       XXY       XXZ       XYY       XYZ       XZZ       YYY       YYZ       YZZ       ZZZ
      1       H    1   -0.0000   -0.0000    0.6199   -0.0000    0.0000   -0.0000   -0.0000    0.6199   -0.0000    1.1049
      2       H    1    0.0000   -0.0000   -0.6199    0.0000   -0.0000    0.0000   -0.0000   -0.6199   -0.0000   -1.1049

  MBIS Radial Moments:
   Center  Symbol  Z      [a0^2]      [a0^3]      [a0^4]
      1       H    1    7.114489   22.091640   79.766224
      2       H    1    7.114489   22.091640   79.766224

  MBIS Valence Widths: [a0]
   Center  Symbol  Z     Width
      1       H    1    0.625735
      2       H    1    0.625735

*** tstop() called on Mac.lan at Sun Aug 10 17:26:15 2025
Module time:
	user time   =       0.65 seconds =       0.01 minutes
	system time =       1.18 seconds =       0.02 minutes
	total time  =          0 seconds =       0.00 minutes
Total time:
	user time   =       2.13 seconds =       0.04 minutes
	system time =       2.94 seconds =       0.05 minutes
	total time  =          1 seconds =       0.02 minutes

    Psi4 stopped on: Sunday, 10 August 2025 05:26PM
    Psi4 wall time for execution: 0:00:00.82

*** Psi4 exiting successfully. Buy a developer a beer!
