                               Psi4 1.9.1 release

  ==> Input File <==

--------------------------------------------------------------------------
molecule {
-1 2
O           0.000000           0.000000           0.000000
O           0.000000           0.000000           1.203331
}

set {
basis              cc-pvtz
reference          uks
maxiter            500
DAMPING_PERCENTAGE 1
E_CONVERGENCE      1.0E-8
D_CONVERGENCE      1.0E-8
DIIS_MAX_VECS      400
MBIS_MAXITER       8000
guess              read
}

E, wfn = energy('b3lyp', restart_file='last_wfn', return_wfn=True)
properties('b3lyp','MBIS_CHARGES', wfn=wfn)
wfn.to_file('last_wfn')
--------------------------------------------------------------------------

    Molecular point group: d2h
  Charge       = -1
  Multiplicity = 2
  Basis Set: CC-PVTZ
    Blend: CC-PVTZ
  Basis Set: (CC-PVTZ AUX)
    Blend: CC-PVTZ-JKFIT
  @DF-UKS Final Energy:  -150.35508212337322
    Total Energy =                       -150.3550821233732506
 Dipole X            :          0.0000000            0.0000000            0.0000000
 Dipole Y            :          0.0000000            0.0000000            0.0000000
 Dipole Z            :          0.0000000            0.0000000            0.0000000
 Magnitude           :                                                    0.0000000
    Molecular point group: d2h

    Geometry (in Angstrom), charge = -1, multiplicity = 2:

       Center              X                  Y                   Z               Mass
    ------------   -----------------  -----------------  -----------------  -----------------
         O            0.000000000000     0.000000000000    -0.601665500000    15.994914619570
         O            0.000000000000     0.000000000000     0.601665500000    15.994914619570

  Charge       = -1
  Multiplicity = 2
  Basis Set: CC-PVTZ
    Blend: CC-PVTZ
  Basis Set: (CC-PVTZ AUX)
    Blend: CC-PVTZ-JKFIT

    Orbital Energies [Eh]
    ---------------------

    Alpha Occupied:

       1Ag   -18.812959     1B1u  -18.812752     2Ag    -0.865900
       2B1u   -0.403265     1B2u   -0.151359     3Ag    -0.131870
       1B3u   -0.112311     1B3g    0.109565     1B2g    0.151857

    Alpha Virtual:

       3B1u    0.551406     2B2u    0.831493     2B3u    0.853582
       4B1u    0.860866     4Ag     0.867404     2B3g    0.933841
       2B2g    0.954846     5Ag     1.030645     5B1u    1.551590
       1B1g    1.602530     6Ag     1.602740     3B2u    1.678510
       3B3u    1.704971     1Au     2.001952     6B1u    2.002110
       7Ag     2.481028     7B1u    2.504372     3B3g    2.533562
       3B2g    2.559723     4B2u    3.804564     4B3u    3.839953
       8Ag     3.993181     4B3g    4.090735     4B2g    4.128534
       9Ag     4.982664     2B1g    4.982927     5B2u    5.041224
       5B3u    5.069919     8B1u    5.124359    10Ag     5.295871
       6B2u    5.319011     6B3u    5.319068     5B3g    5.564850
       5B2g    5.564865     9B1u    6.106609     2Au     6.106681
      10B1u    6.163264     3B1g    6.454683    11Ag     6.454709
       3Au     6.668944    11B1u    6.669501     6B3g    6.693876
       6B2g    6.727624     7B2u    6.799582     7B3u    6.834105
      12B1u    7.075231    12Ag     7.351753     7B3g    7.590350
       7B2g    7.620059    13Ag     7.979022    13B1u   12.639001

    Beta Occupied:

       1Ag   -18.798782     1B1u  -18.798512     2Ag    -0.838638
       2B1u   -0.360841     3Ag    -0.113556     1B3u   -0.100731
       1B2u   -0.069220     1B2g    0.166730

    Beta Virtual:

       1B3g    0.276582     3B1u    0.565811     2B3u    0.858604
       2B2u    0.864638     4Ag     0.873180     4B1u    0.874890
       2B2g    0.961033     2B3g    0.975812     5Ag     1.041663
       5B1u    1.569089     1B1g    1.622912     6Ag     1.624096
       3B2u    1.706791     3B3u    1.706890     1Au     2.031692
       6B1u    2.033245     7Ag     2.496108     7B1u    2.514059
       3B2g    2.563629     3B3g    2.565978     4B3u    3.850619
       4B2u    3.866626     8Ag     4.004066     4B2g    4.140094
       4B3g    4.153369     2B1g    5.002405     9Ag     5.003553
       5B2u    5.069931     5B3u    5.073993     8B1u    5.142131
      10Ag     5.311284     6B3u    5.352754     6B2u    5.353034
       5B2g    5.600829     5B3g    5.601117     2Au     6.133833
       9B1u    6.135171    10B1u    6.184284     3B1g    6.505219
      11Ag     6.508720     3Au     6.716135    11B1u    6.719468
       6B2g    6.734677     6B3g    6.745245     7B3u    6.840469
       7B2u    6.848538    12B1u    7.089896    12Ag     7.371252
       7B3g    7.621630     7B2g    7.623539    13Ag     7.999809
      13B1u   12.659661

    Final Occupation by Irrep:
             Ag   B1g   B2g   B3g    Au   B1u   B2u   B3u
    DOCC [     3,    0,    1,    0,    0,    2,    1,    1 ]
    SOCC [     0,    0,    0,    1,    0,    0,    0,    0 ]
    NA   [     3,    0,    1,    1,    0,    2,    1,    1 ]
    NB   [     3,    0,    1,    0,    0,    2,    1,    1 ]

  @DF-UKS Final Energy:  -150.35508212267706

   => Energetics <=

    Nuclear Repulsion Energy =             28.1446596845589525
    One-Electron Energy =                -268.9254044292129038
    Two-Electron Energy =                 104.5362254362432850
    DFT Exchange-Correlation Energy =     -14.1105628142663946
    Empirical Dispersion Energy =           0.0000000000000000
    VV10 Nonlocal Energy =                  0.0000000000000000
    Total Energy =                       -150.3550821226770609

  UHF NO Occupations:
  HONO-2 :    2B1u 1.9997120
  HONO-1 :    1B2u 1.9988064
  HONO-0 :    1B3g 1.0000000
  LUNO+0 :    2B2u 0.0011936
  LUNO+1 :    3B1u 0.0002880
  LUNO+2 :    4 Ag 0.0001425
  LUNO+3 :    2B2g 0.0000538

Computation Completed

Properties will be evaluated at   0.000000,   0.000000,   0.000000 [a0]

Properties computed using the B3LYP density matrix

 Multipole Moments:

 ------------------------------------------------------------------------------------
     Multipole            Electronic (a.u.)      Nuclear  (a.u.)        Total (a.u.)
 ------------------------------------------------------------------------------------

 L = 1.  Multiply by 2.5417464519 to convert [e a0] to [Debye]
 Dipole X            :          0.0000000            0.0000000            0.0000000
 Dipole Y            :          0.0000000            0.0000000            0.0000000
 Dipole Z            :          0.0000000            0.0000000            0.0000000
 Magnitude           :                                                    0.0000000

 L = 2.  Multiply by 1.3450342976 to convert [e a0^2] to [Debye ang]
 Quadrupole XX       :         -9.4916605            0.0000000           -9.4916605
 Quadrupole XY       :          0.0000000            0.0000000            0.0000000
 Quadrupole XZ       :          0.0000000            0.0000000            0.0000000
 Quadrupole YY       :         -8.6601143            0.0000000           -8.6601143
 Quadrupole YZ       :          0.0000000            0.0000000            0.0000000
 Quadrupole ZZ       :        -31.9804680           20.6836860          -11.2967821
 Traceless XX        :          7.2190871           -6.8945620            0.3245251
 Traceless YY        :          8.0506333           -6.8945620            1.1560713
 Traceless ZZ        :        -15.2697204           13.7891240           -1.4805964

 ------------------------------------------------------------------------------------
  ==> Computing MBIS Charges <==

  Electron Count from Grid (Expected Number): 17.00000 (17.00000)
  Difference:  0.00000

  MBIS Charges: (a.u.)
   Center  Symbol  Z      Pop.       Charge
      1       O    8    8.500001   -0.500001
      2       O    8    8.500001   -0.500001

  MBIS Dipoles: [e a0]
   Center  Symbol  Z        X           Y           Z
      1       O    8   -0.000000   -0.000000    0.262118
      2       O    8    0.000000    0.000000   -0.262118

  MBIS Quadrupoles: [e a0^2]
   Center  Symbol  Z      XX        XY        XZ        YY        YZ        ZZ
      1       O    8   -4.7458    0.0000   -0.0000   -4.3301   -0.0000   -4.4060
      2       O    8   -4.7458    0.0000   -0.0000   -4.3301    0.0000   -4.4060

  MBIS Octupoles: [e a0^3]
   Center  Symbol  Z      XXX       XXY       XXZ       XYY       XYZ       XZZ       YYY       YYZ       YZZ       ZZZ
      1       O    8   -0.0000   -0.0000    0.4404    0.0000   -0.0000   -0.0000   -0.0000    0.2786    0.0000    0.0152
      2       O    8   -0.0000   -0.0000   -0.4404   -0.0000    0.0000   -0.0000    0.0000   -0.2786   -0.0000   -0.0152

  MBIS Radial Moments:
   Center  Symbol  Z      [a0^2]      [a0^3]      [a0^4]
      1       O    8   13.481866   26.967837   64.456757
      2       O    8   13.481866   26.967837   64.456757

  MBIS Valence Widths: [a0]
   Center  Symbol  Z     Width
      1       O    8    0.405603
      2       O    8    0.405603

*** tstop() called on Mac.lan at Sun Aug 10 17:27:04 2025
Module time:
	user time   =       4.29 seconds =       0.07 minutes
	system time =       1.77 seconds =       0.03 minutes
	total time  =          1 seconds =       0.02 minutes
Total time:
	user time   =      16.09 seconds =       0.27 minutes
	system time =       3.68 seconds =       0.06 minutes
	total time  =          2 seconds =       0.03 minutes

    Psi4 stopped on: Sunday, 10 August 2025 05:27PM
    Psi4 wall time for execution: 0:00:01.93

*** Psi4 exiting successfully. Buy a developer a beer!
