                               Psi4 1.9.1 release

  ==> Input File <==

--------------------------------------------------------------------------
molecule {
-1 2
O           0.000000           0.000000           0.000000
C           0.000000           0.000000           1.489511
}

set {
basis              cc-pvtz
reference          uks
maxiter            500
DAMPING_PERCENTAGE 1
E_CONVERGENCE      1.0E-8
D_CONVERGENCE      1.0E-8
DIIS_MAX_VECS      400
MBIS_MAXITER       8000
guess              read
}

E, wfn = energy('b3lyp', restart_file='last_wfn', return_wfn=True)
properties('b3lyp','MBIS_CHARGES', wfn=wfn)
wfn.to_file('last_wfn')
--------------------------------------------------------------------------

    Molecular point group: c2v
  Charge       = -1
  Multiplicity = 2
  Basis Set: CC-PVTZ
    Blend: CC-PVTZ
  Basis Set: (CC-PVTZ AUX)
    Blend: CC-PVTZ-JKFIT
  @DF-UKS Final Energy:  -113.23260511579045
    Total Energy =                       -113.2326051157904487
 Dipole X            :          0.0000000            0.0000000            0.0000000
 Dipole Y            :          0.0000000            0.0000000            0.0000000
 Dipole Z            :         -0.3689145           -0.0030679           -0.3719824
 Magnitude           :                                                    0.3719824
    Molecular point group: c2v

    Geometry (in Angstrom), charge = -1, multiplicity = 2:

       Center              X                  Y                   Z               Mass
    ------------   -----------------  -----------------  -----------------  -----------------
         O            0.000000000000     0.000000000000    -0.638477817950    15.994914619570
         C            0.000000000000     0.000000000000     0.851033182050    12.000000000000

  Charge       = -1
  Multiplicity = 2
  Basis Set: CC-PVTZ
    Blend: CC-PVTZ
  Basis Set: (CC-PVTZ AUX)
    Blend: CC-PVTZ-JKFIT

    Orbital Energies [Eh]
    ---------------------

    Alpha Occupied:

       1A1   -18.855621     2A1    -9.975034     3A1    -0.654677
       4A1    -0.251149     1B1    -0.068756     5A1    -0.053355
       1B2    -0.048033     2B1     0.106845

    Alpha Virtual:

       2B2     0.197238     6A1     0.375994     3B1     0.547224
       3B2     0.562395     7A1     0.588780     8A1     0.600271
       9A1     0.819255     4B1     0.897759     4B2     0.900813
       1A2     0.933877    10A1     0.936643     5B1     1.058835
       5B2     1.059695    11A1     1.321367    12A1     1.497076
       2A2     1.785699    13A1     1.786258     6B1     1.991738
       6B2     1.995029    14A1     2.252613     7B1     2.296963
       7B2     2.310128    15A1     2.548129     8B1     2.953122
       8B2     2.953998     3A2     3.004788    16A1     3.007215
       9B1     3.170472     9B2     3.177216     4A2     3.225676
      17A1     3.230722    18A1     3.245583    10B1     3.435261
      10B2     3.441557    19A1     3.520512    20A1     4.053336
      11B1     4.060516    11B2     4.064023    21A1     5.333458
      12B1     5.428148    12B2     5.428183     5A2     5.514347
      22A1     5.514801    13B2     5.834887    13B1     5.837712
      23A1     6.315297     6A2     6.523262    24A1     6.524300
      14B1     6.890503    14B2     6.892348    25A1     7.535826
      26A1     8.805694

    Beta Occupied:

       1A1   -18.849606     2A1    -9.962974     3A1    -0.640543
       4A1    -0.218772     1B2    -0.044316     5A1    -0.037158
       1B1    -0.020923

    Beta Virtual:

       2B2     0.209332     2B1     0.243055     6A1     0.384688
       3B2     0.570879     3B1     0.596197     7A1     0.606571
       8A1     0.610303     9A1     0.824542     4B2     0.901485
       4B1     0.915499     1A2     0.966258    10A1     0.966551
       5B2     1.061719     5B1     1.084171    11A1     1.332298
      12A1     1.501868     2A2     1.796214    13A1     1.796334
       6B2     1.996829     6B1     2.016917    14A1     2.262697
       7B2     2.320363     7B1     2.354101    15A1     2.562137
       8B2     2.998273     8B1     2.998406    16A1     3.031721
       3A2     3.032166     9B2     3.182175     9B1     3.210850
      17A1     3.256662     4A2     3.285944    18A1     3.288041
      10B2     3.444824    10B1     3.474580    19A1     3.538918
      20A1     4.064023    11B2     4.066301    11B1     4.088178
      21A1     5.342710    12B2     5.441565    12B1     5.441569
       5A2     5.523439    22A1     5.523917    13B2     5.835298
      13B1     5.853256    23A1     6.322945     6A2     6.544972
      24A1     6.545116    14B2     6.892834    14B1     6.912219
      25A1     7.544604    26A1     8.816432

    Final Occupation by Irrep:
             A1    A2    B1    B2
    DOCC [     5,    0,    1,    1 ]
    SOCC [     0,    0,    1,    0 ]
    NA   [     5,    0,    2,    1 ]
    NB   [     5,    0,    1,    1 ]

  @DF-UKS Final Energy:  -113.23260509449872

   => Energetics <=

    Nuclear Repulsion Energy =             17.0529160994178639
    One-Electron Energy =                -192.8443574928563748
    Two-Electron Energy =                  73.8873289098780361
    DFT Exchange-Correlation Energy =     -11.3284926109382500
    Empirical Dispersion Energy =           0.0000000000000000
    VV10 Nonlocal Energy =                  0.0000000000000000
    Total Energy =                       -113.2326050944987230

  UHF NO Occupations:
  HONO-2 :    1 B1 1.9990677
  HONO-1 :    5 A1 1.9990270
  HONO-0 :    2 B1 1.0000000
  LUNO+0 :    6 A1 0.0009730
  LUNO+1 :    3 B1 0.0009323
  LUNO+2 :    2 B2 0.0004265
  LUNO+3 :    7 A1 0.0000516

Computation Completed

Properties will be evaluated at   0.000000,   0.000000,   0.000000 [a0]

Properties computed using the B3LYP density matrix

 Multipole Moments:

 ------------------------------------------------------------------------------------
     Multipole            Electronic (a.u.)      Nuclear  (a.u.)        Total (a.u.)
 ------------------------------------------------------------------------------------

 L = 1.  Multiply by 2.5417464519 to convert [e a0] to [Debye]
 Dipole X            :          0.0000000            0.0000000            0.0000000
 Dipole Y            :          0.0000000            0.0000000            0.0000000
 Dipole Z            :         -0.3689156           -0.0030679           -0.3719835
 Magnitude           :                                                    0.3719835

 L = 2.  Multiply by 1.3450342976 to convert [e a0^2] to [Debye ang]
 Quadrupole XX       :        -11.2277675            0.0000000          -11.2277675
 Quadrupole XY       :          0.0000000            0.0000000            0.0000000
 Quadrupole XZ       :          0.0000000            0.0000000            0.0000000
 Quadrupole YY       :         -9.8013157            0.0000000           -9.8013157
 Quadrupole YZ       :          0.0000000            0.0000000            0.0000000
 Quadrupole ZZ       :        -41.1578777           27.1642911          -13.9935866
 Traceless XX        :          9.5012195           -9.0547637            0.4464558
 Traceless YY        :         10.9276713           -9.0547637            1.8729076
 Traceless ZZ        :        -20.4288907           18.1095274           -2.3193633

 ------------------------------------------------------------------------------------
  ==> Computing MBIS Charges <==

  Electron Count from Grid (Expected Number): 15.00000 (15.00000)
  Difference: -0.00000

  MBIS Charges: (a.u.)
   Center  Symbol  Z      Pop.       Charge
      1       O    8    8.526378   -0.526378
      2       C    6    6.473621   -0.473621

  MBIS Dipoles: [e a0]
   Center  Symbol  Z        X           Y           Z
      1       O    8   -0.000000   -0.000000    0.070319
      2       C    6   -0.000000   -0.000000   -0.315719

  MBIS Quadrupoles: [e a0^2]
   Center  Symbol  Z      XX        XY        XZ        YY        YZ        ZZ
      1       O    8   -4.6236   -0.0000    0.0000   -4.4173   -0.0000   -4.5188
      2       C    6   -6.6042    0.0000    0.0000   -5.3840    0.0000   -6.2983

  MBIS Octupoles: [e a0^3]
   Center  Symbol  Z      XXX       XXY       XXZ       XYY       XYZ       XZZ       YYY       YYZ       YZZ       ZZZ
      1       O    8   -0.0000   -0.0000    0.0789   -0.0000    0.0000   -0.0000   -0.0000    0.0896   -0.0000    0.0031
      2       C    6   -0.0000   -0.0000   -0.6290   -0.0000    0.0000   -0.0000    0.0000   -0.1062    0.0000   -0.1161

  MBIS Radial Moments:
   Center  Symbol  Z      [a0^2]      [a0^3]      [a0^4]
      1       O    8   13.559678   26.996985   64.228309
      2       C    6   18.286575   49.560430   157.919012

  MBIS Valence Widths: [a0]
   Center  Symbol  Z     Width
      1       O    8    0.406758
      2       C    6    0.570849

*** tstop() called on Mac.lan at Sun Aug 10 17:43:28 2025
Module time:
	user time   =       3.95 seconds =       0.07 minutes
	system time =       1.66 seconds =       0.03 minutes
	total time  =          0 seconds =       0.00 minutes
Total time:
	user time   =      18.68 seconds =       0.31 minutes
	system time =       4.07 seconds =       0.07 minutes
	total time  =          2 seconds =       0.03 minutes

    Psi4 stopped on: Sunday, 10 August 2025 05:43PM
    Psi4 wall time for execution: 0:00:02.20

*** Psi4 exiting successfully. Buy a developer a beer!
