                               Psi4 1.9.1 release

  ==> Input File <==

--------------------------------------------------------------------------
molecule {
-1 3
C           0.000000           0.000000           0.000000
H           0.000000           0.000000           1.321656
}

set {
basis              cc-pvtz
reference          uks
maxiter            500
DAMPING_PERCENTAGE 1
E_CONVERGENCE      1.0E-8
D_CONVERGENCE      1.0E-8
DIIS_MAX_VECS      400
MBIS_MAXITER       8000
guess              read
}

E, wfn = energy('b3lyp', restart_file='last_wfn', return_wfn=True)
properties('b3lyp','MBIS_CHARGES', wfn=wfn)
wfn.to_file('last_wfn')
--------------------------------------------------------------------------

    Molecular point group: c2v
  Charge       = -1
  Multiplicity = 3
  Basis Set: CC-PVTZ
    Blend: CC-PVTZ
  Basis Set: (CC-PVTZ AUX)
    Blend: CC-PVTZ-JKFIT
  @DF-UKS Final Energy:   -38.51930070418293
    Total Energy =                        -38.5193007041829318
 Dipole X            :          0.0000000            0.0000000            0.0000000
 Dipole Y            :          0.0000000            0.0000000            0.0000000
 Dipole Z            :         -1.0544212            1.1430155            0.0885943
 Magnitude           :                                                    0.0885943
    Molecular point group: c2v

    Geometry (in Angstrom), charge = -1, multiplicity = 3:

       Center              X                  Y                   Z               Mass
    ------------   -----------------  -----------------  -----------------  -----------------
         C            0.000000000000     0.000000000000    -0.102399747652    12.000000000000
         H            0.000000000000     0.000000000000     1.219256252348     1.007825032230

  Charge       = -1
  Multiplicity = 3
  Basis Set: CC-PVTZ
    Blend: CC-PVTZ
  Basis Set: (CC-PVTZ AUX)
    Blend: CC-PVTZ-JKFIT

    Orbital Energies [Eh]
    ---------------------

    Alpha Occupied:

       1A1    -9.901904     2A1    -0.281502     3A1     0.003134
       1B1     0.078641     1B2     0.078641

    Alpha Virtual:

       4A1     0.281892     5A1     0.532805     2B2     0.568224
       2B1     0.568224     6A1     0.607875     7A1     0.715716
       3B2     0.850752     3B1     0.850752     8A1     0.959683
       1A2     0.959683     9A1     1.205427     4B1     1.266966
       4B2     1.266966    10A1     1.513289     5B2     2.263757
       5B1     2.263757    11A1     2.453696    12A1     2.690440
       2A2     2.890685    13A1     2.890686     6B1     2.904423
       6B2     2.904423     7B1     2.984356     7B2     2.984356
      14A1     3.080979     3A2     3.246935    15A1     3.246935
       8B1     3.375020     8B2     3.375020    16A1     3.412455
       4A2     3.707226    17A1     3.707230     9B1     4.028565
       9B2     4.028565    18A1     4.221203    10B2     4.567062
      10B1     4.567062    19A1     4.691376    20A1     6.812603

    Beta Occupied:

       1A1    -9.877865     2A1    -0.204884     3A1     0.032014

    Beta Virtual:

       1B1     0.237323     1B2     0.237323     4A1     0.293155
       5A1     0.544975     6A1     0.625612     2B2     0.639537
       2B1     0.639537     7A1     0.759166     3B2     0.874428
       3B1     0.874428     8A1     1.036150     1A2     1.036150
       9A1     1.229139     4B1     1.291769     4B2     1.291769
      10A1     1.525020     5B2     2.342762     5B1     2.342762
      11A1     2.474824    12A1     2.703884     2A2     2.941947
      13A1     2.941947     6B1     2.942193     6B2     2.942193
       7B1     3.080387     7B2     3.080387    14A1     3.113471
       3A2     3.366447    15A1     3.366447     8B1     3.432834
       8B2     3.432834    16A1     3.446560     4A2     3.720426
      17A1     3.720430     9B1     4.025980     9B2     4.025980
      18A1     4.240987    10B2     4.583659    10B1     4.583659
      19A1     4.695932    20A1     6.840060

    Final Occupation by Irrep:
             A1    A2    B1    B2
    DOCC [     3,    0,    0,    0 ]
    SOCC [     0,    0,    1,    1 ]
    NA   [     3,    0,    1,    1 ]
    NB   [     3,    0,    0,    0 ]

  @DF-UKS Final Energy:   -38.51930070444764

   => Energetics <=

    Nuclear Repulsion Energy =              2.4023371164811422
    One-Electron Energy =                 -58.3637054910471065
    Two-Electron Energy =                  22.1651437946341225
    DFT Exchange-Correlation Energy =      -4.7230761245158073
    Empirical Dispersion Energy =           0.0000000000000000
    VV10 Nonlocal Energy =                  0.0000000000000000
    Total Energy =                        -38.5193007044476516

  UHF NO Occupations:
  HONO-2 :    3 A1 1.9974164
  HONO-1 :    1 B1 1.0000000
  HONO-0 :    1 B2 1.0000000
  LUNO+0 :    4 A1 0.0025836
  LUNO+1 :    5 A1 0.0006261
  LUNO+2 :    6 A1 0.0000011
  LUNO+3 :    7 A1 0.0000000

Computation Completed

Properties will be evaluated at   0.000000,   0.000000,   0.000000 [a0]

Properties computed using the B3LYP density matrix

 Multipole Moments:

 ------------------------------------------------------------------------------------
     Multipole            Electronic (a.u.)      Nuclear  (a.u.)        Total (a.u.)
 ------------------------------------------------------------------------------------

 L = 1.  Multiply by 2.5417464519 to convert [e a0] to [Debye]
 Dipole X            :          0.0000000            0.0000000            0.0000000
 Dipole Y            :          0.0000000            0.0000000            0.0000000
 Dipole Z            :         -1.0544212            1.1430155            0.0885943
 Magnitude           :                                                    0.0885943

 L = 2.  Multiply by 1.3450342976 to convert [e a0^2] to [Debye ang]
 Quadrupole XX       :         -8.1245327            0.0000000           -8.1245327
 Quadrupole XY       :          0.0000000            0.0000000            0.0000000
 Quadrupole XZ       :          0.0000000            0.0000000            0.0000000
 Quadrupole YY       :         -8.1245327            0.0000000           -8.1245327
 Quadrupole YZ       :          0.0000000            0.0000000            0.0000000
 Quadrupole ZZ       :        -14.8298391            5.5333652           -9.2964740
 Traceless XX        :          2.2351021           -1.8444551            0.3906471
 Traceless YY        :          2.2351021           -1.8444551            0.3906471
 Traceless ZZ        :         -4.4702043            3.6889101           -0.7812942

 ------------------------------------------------------------------------------------
  ==> Computing MBIS Charges <==

  Electron Count from Grid (Expected Number):  8.00000 ( 8.00000)
  Difference:  0.00000

  MBIS Charges: (a.u.)
   Center  Symbol  Z      Pop.       Charge
      1       C    6    6.874020   -0.874020
      2       H    1    1.125980   -0.125980

  MBIS Dipoles: [e a0]
   Center  Symbol  Z        X           Y           Z
      1       C    6   -0.000000   -0.000000    0.223059
      2       H    1    0.000000    0.000000   -0.013329

  MBIS Quadrupoles: [e a0^2]
   Center  Symbol  Z      XX        XY        XZ        YY        YZ        ZZ
      1       C    6   -7.0398    0.0000    0.0000   -7.0398    0.0000   -7.2801
      2       H    1   -1.0847    0.0000   -0.0000   -1.0847    0.0000   -1.1671

  MBIS Octupoles: [e a0^3]
   Center  Symbol  Z      XXX       XXY       XXZ       XYY       XYZ       XZZ       YYY       YYZ       YZZ       ZZZ
      1       C    6    0.0000   -0.0000    0.2196   -0.0000   -0.0000   -0.0000   -0.0000    0.2196   -0.0000   -0.6673
      2       H    1   -0.0000    0.0000   -0.0985   -0.0000   -0.0000   -0.0000   -0.0000   -0.0985   -0.0000   -0.2318

  MBIS Radial Moments:
   Center  Symbol  Z      [a0^2]      [a0^3]      [a0^4]
      1       C    6   21.359723   60.587658   202.954195
      2       H    1    3.336550    8.355499   24.866282

  MBIS Valence Widths: [a0]
   Center  Symbol  Z     Width
      1       C    6    0.592206
      2       H    1    0.493954

*** tstop() called on Mac.lan at Sun Aug 10 17:36:04 2025
Module time:
	user time   =       2.44 seconds =       0.04 minutes
	system time =       2.03 seconds =       0.03 minutes
	total time  =          0 seconds =       0.00 minutes
Total time:
	user time   =      11.25 seconds =       0.19 minutes
	system time =       4.34 seconds =       0.07 minutes
	total time  =          1 seconds =       0.02 minutes

    Psi4 stopped on: Sunday, 10 August 2025 05:36PM
    Psi4 wall time for execution: 0:00:01.51

*** Psi4 exiting successfully. Buy a developer a beer!
