                               Psi4 1.9.1 release

  ==> Input File <==

--------------------------------------------------------------------------
molecule {
-1 1
O           0.000000           0.000000           0.000000
H           0.000000           0.000000           0.727305
}

set {
basis              cc-pvtz
reference          uks
maxiter            500
DAMPING_PERCENTAGE 1
E_CONVERGENCE      1.0E-8
D_CONVERGENCE      1.0E-8
DIIS_MAX_VECS      400
MBIS_MAXITER       8000
guess              read
}

E, wfn = energy('b3lyp', restart_file='last_wfn', return_wfn=True)
properties('b3lyp','MBIS_CHARGES', wfn=wfn)
wfn.to_file('last_wfn')
--------------------------------------------------------------------------

    Molecular point group: c2v
  Charge       = -1
  Multiplicity = 1
  Basis Set: CC-PVTZ
    Blend: CC-PVTZ
  Basis Set: (CC-PVTZ AUX)
    Blend: CC-PVTZ-JKFIT
  @DF-UKS Final Energy:   -75.69502170915933
    Total Energy =                        -75.6950217091593345
 Dipole X            :          0.0000000            0.0000000            0.0000000
 Dipole Y            :          0.0000000            0.0000000            0.0000000
 Dipole Z            :         -0.0478096            0.6412043            0.5933948
 Magnitude           :                                                    0.5933948
    Molecular point group: c2v

    Geometry (in Angstrom), charge = -1, multiplicity = 1:

       Center              X                  Y                   Z               Mass
    ------------   -----------------  -----------------  -----------------  -----------------
         O            0.000000000000     0.000000000000    -0.043110475140    15.994914619570
         H            0.000000000000     0.000000000000     0.684194524860     1.007825032230

  Charge       = -1
  Multiplicity = 1
  Basis Set: CC-PVTZ
    Blend: CC-PVTZ
  Basis Set: (CC-PVTZ AUX)
    Blend: CC-PVTZ-JKFIT

    Orbital Energies [Eh]
    ---------------------

    Alpha Occupied:

       1A1   -18.626100     2A1    -0.594410     3A1    -0.030559
       1B2     0.120907     1B1     0.120907

    Alpha Virtual:

       4A1     0.330785     5A1     0.813121     6A1     0.923261
       2B1     0.934291     2B2     0.934291     3B2     1.123035
       3B1     1.123035     7A1     1.194081     8A1     1.892605
       1A2     1.892605     9A1     2.001366     4B1     2.263741
       4B2     2.263741    10A1     2.308462    11A1     3.087370
       2A2     3.741914    12A1     3.741914     5B1     3.822037
       5B2     3.822037     6B1     4.134793     6B2     4.134793
      13A1     4.330408     7B1     4.761595     7B2     4.761595
      14A1     5.012542     8B2     5.591774     8B1     5.591774
      15A1     6.012189    16A1     6.218310     3A2     6.218310
      17A1     6.671689     4A2     6.671689     9B2     6.728066
       9B1     6.728066    18A1     7.720223    19A1     7.995771
      10B1     8.226176    10B2     8.226176    20A1    13.536373

    Beta Occupied:

       1A1   -18.626100     2A1    -0.594410     3A1    -0.030559
       1B2     0.120907     1B1     0.120907

    Beta Virtual:

       4A1     0.330785     5A1     0.813121     6A1     0.923261
       2B1     0.934291     2B2     0.934291     3B2     1.123035
       3B1     1.123035     7A1     1.194081     8A1     1.892605
       1A2     1.892605     9A1     2.001366     4B1     2.263741
       4B2     2.263741    10A1     2.308462    11A1     3.087370
       2A2     3.741914    12A1     3.741914     5B1     3.822037
       5B2     3.822037     6B1     4.134793     6B2     4.134793
      13A1     4.330408     7B1     4.761595     7B2     4.761595
      14A1     5.012542     8B2     5.591774     8B1     5.591774
      15A1     6.012189    16A1     6.218310     3A2     6.218310
      17A1     6.671689     4A2     6.671689     9B2     6.728066
       9B1     6.728066    18A1     7.720223    19A1     7.995771
      10B1     8.226176    10B2     8.226176    20A1    13.536373

    Final Occupation by Irrep:
             A1    A2    B1    B2
    DOCC [     3,    0,    1,    1 ]
    SOCC [     0,    0,    0,    0 ]
    NA   [     3,    0,    1,    1 ]
    NB   [     3,    0,    1,    1 ]

  @DF-UKS Final Energy:   -75.69502170934979

   => Energetics <=

    Nuclear Repulsion Energy =              5.8206910242058010
    One-Electron Energy =                -119.5642090952041769
    Two-Electron Energy =                  45.6388813378830278
    DFT Exchange-Correlation Energy =      -7.5903849762344278
    Empirical Dispersion Energy =           0.0000000000000000
    VV10 Nonlocal Energy =                  0.0000000000000000
    Total Energy =                        -75.6950217093497741

  UHF NO Occupations:
  HONO-2 :    1 B1 2.0000000
  HONO-1 :    3 A1 2.0000000
  HONO-0 :    1 B2 2.0000000
  LUNO+0 :    4 A1 0.0000000
  LUNO+1 :    5 A1 0.0000000
  LUNO+2 :    6 A1 0.0000000
  LUNO+3 :    7 A1 0.0000000

Computation Completed

Properties will be evaluated at   0.000000,   0.000000,   0.000000 [a0]

Properties computed using the B3LYP density matrix

 Multipole Moments:

 ------------------------------------------------------------------------------------
     Multipole            Electronic (a.u.)      Nuclear  (a.u.)        Total (a.u.)
 ------------------------------------------------------------------------------------

 L = 1.  Multiply by 2.5417464519 to convert [e a0] to [Debye]
 Dipole X            :          0.0000000            0.0000000            0.0000000
 Dipole Y            :          0.0000000            0.0000000            0.0000000
 Dipole Z            :         -0.0478096            0.6412043            0.5933948
 Magnitude           :                                                    0.5933948

 L = 2.  Multiply by 1.3450342976 to convert [e a0^2] to [Debye ang]
 Quadrupole XX       :         -6.0828501            0.0000000           -6.0828501
 Quadrupole XY       :          0.0000000            0.0000000            0.0000000
 Quadrupole XZ       :          0.0000000            0.0000000            0.0000000
 Quadrupole YY       :         -6.0828501            0.0000000           -6.0828501
 Quadrupole YZ       :          0.0000000            0.0000000            0.0000000
 Quadrupole ZZ       :         -6.6913227            1.7247895           -4.9665332
 Traceless XX        :          0.2028242           -0.5749298           -0.3721056
 Traceless YY        :          0.2028242           -0.5749298           -0.3721056
 Traceless ZZ        :         -0.4056484            1.1498597            0.7442113

 ------------------------------------------------------------------------------------
  ==> Computing MBIS Charges <==

  Electron Count from Grid (Expected Number): 10.00000 (10.00000)
  Difference:  0.00000

  MBIS Charges: (a.u.)
   Center  Symbol  Z      Pop.       Charge
      1       O    8    9.450650   -1.450650
      2       H    1    0.549350    0.450650

  MBIS Dipoles: [e a0]
   Center  Symbol  Z        X           Y           Z
      1       O    8   -0.000000   -0.000000   -0.120067
      2       H    1   -0.000000   -0.000000    0.012618

  MBIS Quadrupoles: [e a0^2]
   Center  Symbol  Z      XX        XY        XZ        YY        YZ        ZZ
      1       O    8   -5.8930    0.0000   -0.0000   -5.8930   -0.0000   -5.5724
      2       H    1   -0.1898    0.0000   -0.0000   -0.1898   -0.0000   -0.1900

  MBIS Octupoles: [e a0^3]
   Center  Symbol  Z      XXX       XXY       XXZ       XYY       XYZ       XZZ       YYY       YYZ       YZZ       ZZZ
      1       O    8    0.0000   -0.0000   -0.0290   -0.0000    0.0000    0.0000   -0.0000   -0.0290   -0.0000   -0.5376
      2       H    1   -0.0000    0.0000    0.0022   -0.0000    0.0000    0.0000   -0.0000    0.0022   -0.0000    0.0014

  MBIS Radial Moments:
   Center  Symbol  Z      [a0^2]      [a0^3]      [a0^4]
      1       O    8   17.358408   36.597099   90.742464
      2       H    1    0.569738    0.838790    1.478375

  MBIS Valence Widths: [a0]
   Center  Symbol  Z     Width
      1       O    8    0.432715
      2       H    1    0.293993

*** tstop() called on Mac.lan at Sun Aug 10 17:37:10 2025
Module time:
	user time   =       3.27 seconds =       0.05 minutes
	system time =       3.15 seconds =       0.05 minutes
	total time  =          1 seconds =       0.02 minutes
Total time:
	user time   =      12.60 seconds =       0.21 minutes
	system time =       5.40 seconds =       0.09 minutes
	total time  =          2 seconds =       0.03 minutes

    Psi4 stopped on: Sunday, 10 August 2025 05:37PM
    Psi4 wall time for execution: 0:00:01.75

*** Psi4 exiting successfully. Buy a developer a beer!
