                               Psi4 1.9.1 release

  ==> Input File <==

--------------------------------------------------------------------------
molecule {
-1 2
H           0.000000           0.000000           0.000000
H           0.000000           0.000000           0.516538
}

set {
basis              cc-pvtz
reference          uks
maxiter            500
DAMPING_PERCENTAGE 1
E_CONVERGENCE      1.0E-8
D_CONVERGENCE      1.0E-8
DIIS_MAX_VECS      400
MBIS_MAXITER       8000
guess              read
}

E, wfn = energy('b3lyp', restart_file='last_wfn', return_wfn=True)
properties('b3lyp','MBIS_CHARGES', wfn=wfn)
wfn.to_file('last_wfn')
--------------------------------------------------------------------------

    Molecular point group: d2h
  Charge       = -1
  Multiplicity = 2
  Basis Set: CC-PVTZ
    Blend: CC-PVTZ
  Basis Set: (CC-PVTZ AUX)
    Blend: CC-PVTZ-JKFIT
  @DF-UKS Final Energy:    -0.96363257362126
    Total Energy =                         -0.9636325736212606
 Dipole X            :          0.0000000            0.0000000            0.0000000
 Dipole Y            :          0.0000000            0.0000000            0.0000000
 Dipole Z            :          0.0000000            0.0000000            0.0000000
 Magnitude           :                                                    0.0000000
    Molecular point group: d2h

    Geometry (in Angstrom), charge = -1, multiplicity = 2:

       Center              X                  Y                   Z               Mass
    ------------   -----------------  -----------------  -----------------  -----------------
         H            0.000000000000     0.000000000000    -0.258269000000     1.007825032230
         H            0.000000000000     0.000000000000     0.258269000000     1.007825032230

  Charge       = -1
  Multiplicity = 2
  Basis Set: CC-PVTZ
    Blend: CC-PVTZ
  Basis Set: (CC-PVTZ AUX)
    Blend: CC-PVTZ-JKFIT

    Orbital Energies [Eh]
    ---------------------

    Alpha Occupied:

       1Ag    -0.203529     1B1u    0.231856

    Alpha Virtual:

       2Ag     0.389772     2B1u    0.781359     1B3u    0.818230
       1B2u    0.818230     3Ag     1.221674     1B2g    1.234136
       1B3g    1.234136     3B1u    1.668245     4Ag     2.212520
       4B1u    2.792053     5Ag     3.228550     1B1g    3.228550
       2B2u    3.454318     2B3u    3.454318     2B2g    3.659814
       2B3g    3.659814     6Ag     3.716182     1Au     4.315017
       5B1u    4.315017     3B3u    4.337535     3B2u    4.337535
       6B1u    5.143113     7Ag     6.632108     3B3g    6.734485
       3B2g    6.734485     7B1u    9.216408

    Beta Occupied:

       1Ag    -0.196278

    Beta Virtual:

       1B1u    0.328188     2Ag     0.411366     2B1u    0.804748
       1B3u    0.817785     1B2u    0.817785     1B2g    1.248152
       1B3g    1.248152     3Ag     1.257749     3B1u    1.678877
       4Ag     2.216367     4B1u    2.814607     5Ag     3.228181
       1B1g    3.228181     2B2u    3.452694     2B3u    3.452694
       2B2g    3.674603     2B3g    3.674603     6Ag     3.738360
       5B1u    4.320441     1Au     4.320441     3B3u    4.349020
       3B2u    4.349020     6B1u    5.155817     7Ag     6.640427
       3B3g    6.742308     3B2g    6.742308     7B1u    9.225588

    Final Occupation by Irrep:
             Ag   B1g   B2g   B3g    Au   B1u   B2u   B3u
    DOCC [     1,    0,    0,    0,    0,    0,    0,    0 ]
    SOCC [     0,    0,    0,    0,    0,    1,    0,    0 ]
    NA   [     1,    0,    0,    0,    0,    1,    0,    0 ]
    NB   [     1,    0,    0,    0,    0,    0,    0,    0 ]

  @DF-UKS Final Energy:    -0.96363257372924

   => Energetics <=

    Nuclear Repulsion Energy =              1.0244690819842879
    One-Electron Energy =                  -3.2408544558179537
    Two-Electron Energy =                   2.0372624015323382
    DFT Exchange-Correlation Energy =      -0.7845096014279156
    Empirical Dispersion Energy =           0.0000000000000000
    VV10 Nonlocal Energy =                  0.0000000000000000
    Total Energy =                         -0.9636325737292435

  UHF NO Occupations:
  HONO-1 :    1 Ag 1.9998075
  HONO-0 :    1B1u 1.0000000
  LUNO+0 :    2 Ag 0.0001925
  LUNO+1 :    2B1u 0.0000000
  LUNO+2 :    3B1u 0.0000000
  LUNO+3 :    4B1u 0.0000000

Computation Completed

Properties will be evaluated at   0.000000,   0.000000,   0.000000 [a0]

Properties computed using the B3LYP density matrix

 Multipole Moments:

 ------------------------------------------------------------------------------------
     Multipole            Electronic (a.u.)      Nuclear  (a.u.)        Total (a.u.)
 ------------------------------------------------------------------------------------

 L = 1.  Multiply by 2.5417464519 to convert [e a0] to [Debye]
 Dipole X            :          0.0000000            0.0000000            0.0000000
 Dipole Y            :          0.0000000            0.0000000            0.0000000
 Dipole Z            :          0.0000000            0.0000000            0.0000000
 Magnitude           :                                                    0.0000000

 L = 2.  Multiply by 1.3450342976 to convert [e a0^2] to [Debye ang]
 Quadrupole XX       :         -4.0943753            0.0000000           -4.0943753
 Quadrupole XY       :          0.0000000            0.0000000            0.0000000
 Quadrupole XZ       :          0.0000000            0.0000000            0.0000000
 Quadrupole YY       :         -4.0943753            0.0000000           -4.0943753
 Quadrupole YZ       :          0.0000000            0.0000000            0.0000000
 Quadrupole ZZ       :        -10.1720160            0.4764006           -9.6956154
 Traceless XX        :          2.0258802           -0.1588002            1.8670800
 Traceless YY        :          2.0258802           -0.1588002            1.8670800
 Traceless ZZ        :         -4.0517605            0.3176004           -3.7341601

 ------------------------------------------------------------------------------------
  ==> Computing MBIS Charges <==

  Electron Count from Grid (Expected Number):  3.00000 ( 3.00000)
  Difference:  0.00000

  MBIS Charges: (a.u.)
   Center  Symbol  Z      Pop.       Charge
      1       H    1    1.500000   -0.500000
      2       H    1    1.500000   -0.500000

  MBIS Dipoles: [e a0]
   Center  Symbol  Z        X           Y           Z
      1       H    1   -0.000000    0.000000    0.303498
      2       H    1    0.000000   -0.000000   -0.303498

  MBIS Quadrupoles: [e a0^2]
   Center  Symbol  Z      XX        XY        XZ        YY        YZ        ZZ
      1       H    1   -2.0472    0.0000   -0.0000   -2.0472   -0.0000   -4.4325
      2       H    1   -2.0472   -0.0000   -0.0000   -2.0472    0.0000   -4.4325

  MBIS Octupoles: [e a0^3]
   Center  Symbol  Z      XXX       XXY       XXZ       XYY       XYZ       XZZ       YYY       YYZ       YZZ       ZZZ
      1       H    1    0.0000    0.0000    0.8940    0.0000    0.0000   -0.0000    0.0000    0.8940    0.0000    2.2193
      2       H    1   -0.0000   -0.0000   -0.8940    0.0000    0.0000    0.0000   -0.0000   -0.8940   -0.0000   -2.2193

  MBIS Radial Moments:
   Center  Symbol  Z      [a0^2]      [a0^3]      [a0^4]
      1       H    1    8.526834   30.745532   126.567613
      2       H    1    8.526834   30.745532   126.567613

  MBIS Valence Widths: [a0]
   Center  Symbol  Z     Width
      1       H    1    0.656370
      2       H    1    0.656370

*** tstop() called on Mac.lan at Sun Aug 10 17:26:03 2025
Module time:
	user time   =       0.45 seconds =       0.01 minutes
	system time =       1.35 seconds =       0.02 minutes
	total time  =          0 seconds =       0.00 minutes
Total time:
	user time   =       1.50 seconds =       0.03 minutes
	system time =       3.55 seconds =       0.06 minutes
	total time  =          0 seconds =       0.00 minutes

    Psi4 stopped on: Sunday, 10 August 2025 05:26PM
    Psi4 wall time for execution: 0:00:00.83

*** Psi4 exiting successfully. Buy a developer a beer!
