                               Psi4 1.9.1 release

  ==> Input File <==

--------------------------------------------------------------------------
molecule {
-1 3
C           0.000000           0.000000           0.000000
H           0.000000           0.000000           1.510799
}

set {
basis              cc-pvtz
reference          uks
maxiter            500
DAMPING_PERCENTAGE 1
E_CONVERGENCE      1.0E-8
D_CONVERGENCE      1.0E-8
DIIS_MAX_VECS      400
MBIS_MAXITER       8000
guess              read
}

E, wfn = energy('b3lyp', restart_file='last_wfn', return_wfn=True)
properties('b3lyp','MBIS_CHARGES', wfn=wfn)
wfn.to_file('last_wfn')
--------------------------------------------------------------------------

    Molecular point group: c2v
  Charge       = -1
  Multiplicity = 3
  Basis Set: CC-PVTZ
    Blend: CC-PVTZ
  Basis Set: (CC-PVTZ AUX)
    Blend: CC-PVTZ-JKFIT
  @DF-UKS Final Energy:   -38.50245320628423
    Total Energy =                        -38.5024532062842297
 Dipole X            :          0.0000000            0.0000000            0.0000000
 Dipole Y            :          0.0000000            0.0000000            0.0000000
 Dipole Z            :         -1.5789303            1.3065932           -0.2723371
 Magnitude           :                                                    0.2723371
    Molecular point group: c2v

    Geometry (in Angstrom), charge = -1, multiplicity = 3:

       Center              X                  Y                   Z               Mass
    ------------   -----------------  -----------------  -----------------  -----------------
         C            0.000000000000     0.000000000000    -0.117054238283    12.000000000000
         H            0.000000000000     0.000000000000     1.393744761717     1.007825032230

  Charge       = -1
  Multiplicity = 3
  Basis Set: CC-PVTZ
    Blend: CC-PVTZ
  Basis Set: (CC-PVTZ AUX)
    Blend: CC-PVTZ-JKFIT

    Orbital Energies [Eh]
    ---------------------

    Alpha Occupied:

       1A1    -9.925540     2A1    -0.271296     3A1     0.000014
       1B1     0.067829     1B2     0.067829

    Alpha Virtual:

       4A1     0.260252     5A1     0.515468     2B1     0.559822
       2B2     0.559822     6A1     0.582511     7A1     0.721206
       3B1     0.833479     3B2     0.833479     1A2     0.951920
       8A1     0.951920     9A1     1.138522     4B1     1.212077
       4B2     1.212077    10A1     1.470976     5B1     2.240167
       5B2     2.240167    11A1     2.424663    12A1     2.749566
       6B1     2.870947     6B2     2.870947     2A2     2.927495
      13A1     2.927496    14A1     2.939367     7B1     2.972358
       7B2     2.972358     3A2     3.225953    15A1     3.225953
       8B1     3.321003     8B2     3.321003    16A1     3.511474
       4A2     3.597275    17A1     3.597277    18A1     3.941581
       9B1     3.945248     9B2     3.945248    10B1     4.264333
      10B2     4.264333    19A1     4.453901    20A1     5.822484

    Beta Occupied:

       1A1    -9.900634     2A1    -0.186643     3A1     0.021206

    Beta Virtual:

       1B1     0.229405     1B2     0.229405     4A1     0.276547
       5A1     0.520217     6A1     0.601237     2B1     0.630779
       2B2     0.630779     7A1     0.768497     3B1     0.853050
       3B2     0.853050     1A2     1.028376     8A1     1.028376
       9A1     1.159679     4B1     1.237431     4B2     1.237431
      10A1     1.480436     5B1     2.319343     5B2     2.319343
      11A1     2.445045    12A1     2.751362     6B1     2.908089
       6B2     2.908089    13A1     2.973346     2A2     2.985221
      14A1     2.985222     7B1     3.068758     7B2     3.068758
       3A2     3.344020    15A1     3.344020     8B1     3.385934
       8B2     3.385934    16A1     3.549952     4A2     3.604020
      17A1     3.604021     9B1     3.941548     9B2     3.941548
      18A1     3.971531    10B1     4.272418    10B2     4.272418
      19A1     4.453061    20A1     5.844483

    Final Occupation by Irrep:
             A1    A2    B1    B2
    DOCC [     3,    0,    0,    0 ]
    SOCC [     0,    0,    1,    1 ]
    NA   [     3,    0,    1,    1 ]
    NB   [     3,    0,    0,    0 ]

  @DF-UKS Final Energy:   -38.50245320614822

   => Energetics <=

    Nuclear Repulsion Energy =              2.1015788758266321
    One-Electron Energy =                 -57.6952939798464257
    Two-Electron Energy =                  21.7847902357414220
    DFT Exchange-Correlation Energy =      -4.6935283378698474
    Empirical Dispersion Energy =           0.0000000000000000
    VV10 Nonlocal Energy =                  0.0000000000000000
    Total Energy =                        -38.5024532061482176

  UHF NO Occupations:
  HONO-2 :    3 A1 1.9967558
  HONO-1 :    1 B1 1.0000000
  HONO-0 :    1 B2 1.0000000
  LUNO+0 :    4 A1 0.0032442
  LUNO+1 :    5 A1 0.0009547
  LUNO+2 :    6 A1 0.0000011
  LUNO+3 :    7 A1 0.0000000

Computation Completed

Properties will be evaluated at   0.000000,   0.000000,   0.000000 [a0]

Properties computed using the B3LYP density matrix

 Multipole Moments:

 ------------------------------------------------------------------------------------
     Multipole            Electronic (a.u.)      Nuclear  (a.u.)        Total (a.u.)
 ------------------------------------------------------------------------------------

 L = 1.  Multiply by 2.5417464519 to convert [e a0] to [Debye]
 Dipole X            :          0.0000000            0.0000000            0.0000000
 Dipole Y            :          0.0000000            0.0000000            0.0000000
 Dipole Z            :         -1.5789303            1.3065932           -0.2723371
 Magnitude           :                                                    0.2723371

 L = 2.  Multiply by 1.3450342976 to convert [e a0^2] to [Debye ang]
 Quadrupole XX       :         -8.2300604            0.0000000           -8.2300604
 Quadrupole XY       :          0.0000000            0.0000000            0.0000000
 Quadrupole XZ       :          0.0000000            0.0000000            0.0000000
 Quadrupole YY       :         -8.2300604            0.0000000           -8.2300604
 Quadrupole YZ       :          0.0000000            0.0000000            0.0000000
 Quadrupole ZZ       :        -17.3936551            7.2304586          -10.1631965
 Traceless XX        :          3.0545316           -2.4101529            0.6443787
 Traceless YY        :          3.0545316           -2.4101529            0.6443787
 Traceless ZZ        :         -6.1090632            4.8203057           -1.2887574

 ------------------------------------------------------------------------------------
  ==> Computing MBIS Charges <==

  Electron Count from Grid (Expected Number):  8.00000 ( 8.00000)
  Difference:  0.00000

  MBIS Charges: (a.u.)
   Center  Symbol  Z      Pop.       Charge
      1       C    6    6.764600   -0.764600
      2       H    1    1.235400   -0.235400

  MBIS Dipoles: [e a0]
   Center  Symbol  Z        X           Y           Z
      1       C    6   -0.000000   -0.000000    0.197864
      2       H    1   -0.000000    0.000000   -0.019334

  MBIS Quadrupoles: [e a0^2]
   Center  Symbol  Z      XX        XY        XZ        YY        YZ        ZZ
      1       C    6   -6.8331    0.0000    0.0000   -6.8331    0.0000   -6.8486
      2       H    1   -1.3970   -0.0000   -0.0000   -1.3970    0.0000   -1.4549

  MBIS Octupoles: [e a0^3]
   Center  Symbol  Z      XXX       XXY       XXZ       XYY       XYZ       XZZ       YYY       YYZ       YZZ       ZZZ
      1       C    6    0.0000   -0.0000    0.1561   -0.0000    0.0000   -0.0000   -0.0000    0.1561   -0.0000   -0.7066
      2       H    1   -0.0000    0.0000   -0.1155   -0.0000   -0.0000   -0.0000    0.0000   -0.1155    0.0000   -0.2024

  MBIS Radial Moments:
   Center  Symbol  Z      [a0^2]      [a0^3]      [a0^4]
      1       C    6   20.514710   57.565485   190.823459
      2       H    1    4.248872   11.356458   35.819500

  MBIS Valence Widths: [a0]
   Center  Symbol  Z     Width
      1       C    6    0.586704
      2       H    1    0.533271

*** tstop() called on Mac.lan at Sun Aug 10 17:36:19 2025
Module time:
	user time   =       3.24 seconds =       0.05 minutes
	system time =       1.69 seconds =       0.03 minutes
	total time  =          0 seconds =       0.00 minutes
Total time:
	user time   =      13.17 seconds =       0.22 minutes
	system time =       3.97 seconds =       0.07 minutes
	total time  =          1 seconds =       0.02 minutes

    Psi4 stopped on: Sunday, 10 August 2025 05:36PM
    Psi4 wall time for execution: 0:00:01.66

*** Psi4 exiting successfully. Buy a developer a beer!
