                               Psi4 1.9.1 release

  ==> Input File <==

--------------------------------------------------------------------------
molecule {
-1 2
N           0.000000           0.000000           0.000000
N           0.000000           0.000000           0.722811
}

set {
basis              cc-pvtz
reference          uks
maxiter            500
DAMPING_PERCENTAGE 1
E_CONVERGENCE      1.0E-8
D_CONVERGENCE      1.0E-8
DIIS_MAX_VECS      400
MBIS_MAXITER       8000
guess              read
}

E, wfn = energy('b3lyp', restart_file='last_wfn', return_wfn=True)
properties('b3lyp','MBIS_CHARGES', wfn=wfn)
wfn.to_file('last_wfn')
--------------------------------------------------------------------------

    Molecular point group: d2h
  Charge       = -1
  Multiplicity = 2
  Basis Set: CC-PVTZ
    Blend: CC-PVTZ
  Basis Set: (CC-PVTZ AUX)
    Blend: CC-PVTZ-JKFIT
  @DF-UKS Final Energy:  -108.23552146742307
    Total Energy =                       -108.2355214674230695
 Dipole X            :          0.0000000            0.0000000            0.0000000
 Dipole Y            :          0.0000000            0.0000000            0.0000000
 Dipole Z            :          0.0000000            0.0000000            0.0000000
 Magnitude           :                                                    0.0000000
    Molecular point group: d2h

    Geometry (in Angstrom), charge = -1, multiplicity = 2:

       Center              X                  Y                   Z               Mass
    ------------   -----------------  -----------------  -----------------  -----------------
         N            0.000000000000     0.000000000000    -0.361405500000    14.003074004430
         N            0.000000000000     0.000000000000     0.361405500000    14.003074004430

  Charge       = -1
  Multiplicity = 2
  Basis Set: CC-PVTZ
    Blend: CC-PVTZ
  Basis Set: (CC-PVTZ AUX)
    Blend: CC-PVTZ-JKFIT

    Orbital Energies [Eh]
    ---------------------

    Alpha Occupied:

       1Ag   -13.998815     1B1u  -13.928841     2Ag    -0.900055
       1B3u   -0.310845     1B2u   -0.308068     3Ag    -0.115370
       2B1u   -0.106817     1B2g    0.406452

    Alpha Virtual:

       1B3g    0.481012     3B1u    0.556130     2B3u    0.603940
       2B2u    0.605186     4Ag     0.635603     5Ag     0.847847
       2B2g    0.915348     2B3g    0.934573     4B1u    1.150190
       1B1g    1.163428     6Ag     1.164392     3B3u    1.661927
       3B2u    1.664953     1Au     1.710063     5B1u    1.712188
       6B1u    1.733564     7Ag     1.835345     3B2g    2.017959
       3B3g    2.025313     4B2u    2.854958     4B3u    2.860218
       7B1u    3.485686     8Ag     3.569347     5B3u    3.812045
       5B2u    3.812076     4B2g    3.815448     4B3g    3.818487
       2B1g    3.953872     9Ag     3.954467     8B1u    3.995357
       6B3u    4.403357     6B2u    4.405598    10Ag     4.602465
       2Au     4.657581     9B1u    4.658862     5B2g    4.797023
       5B3g    4.797154     6B2g    4.807776     6B3g    4.808407
       3B1g    4.889868    11Ag     4.890673    12Ag     5.093269
      10B1u    5.669359     7B2u    6.173853     7B3u    6.176449
       3Au     6.499165    11B1u    6.499851     7B2g    8.353959
       7B3g    8.355543    12B1u    8.438304    13Ag     9.256481
      13B1u   28.554441

    Beta Occupied:

       1Ag   -13.995432     1B1u  -13.925328     2Ag    -0.894791
       1B2u   -0.304620     1B3u   -0.282200     3Ag    -0.100464
       2B1u   -0.083376

    Beta Virtual:

       1B3g    0.490937     1B2g    0.512826     3B1u    0.565126
       2B2u    0.609352     2B3u    0.629335     4Ag     0.645158
       5Ag     0.856848     2B3g    0.941995     2B2g    0.961767
       4B1u    1.174132     1B1g    1.176300     6Ag     1.176682
       3B2u    1.668063     3B3u    1.691854     5B1u    1.734336
       1Au     1.740932     6B1u    1.750719     7Ag     1.838687
       3B3g    2.029942     3B2g    2.048968     4B2u    2.857803
       4B3u    2.878047     7B1u    3.492760     8Ag     3.576389
       5B2u    3.823313     5B3u    3.823319     4B3g    3.823398
       4B2g    3.844965     2B1g    3.962536     9Ag     3.962814
       8B1u    4.011081     6B2u    4.407135     6B3u    4.425789
      10Ag     4.610396     9B1u    4.681314     2Au     4.681370
       5B3g    4.808088     5B2g    4.817104     6B3g    4.819631
       6B2g    4.830871     3B1g    4.908385    11Ag     4.908810
      12Ag     5.098127    10B1u    5.677650     7B2u    6.175005
       7B3u    6.194206     3Au     6.514484    11B1u    6.514561
       7B3g    8.358116     7B2g    8.377075    12B1u    8.442447
      13Ag     9.266263    13B1u   28.559589

    Final Occupation by Irrep:
             Ag   B1g   B2g   B3g    Au   B1u   B2u   B3u
    DOCC [     3,    0,    0,    0,    0,    2,    1,    1 ]
    SOCC [     0,    0,    1,    0,    0,    0,    0,    0 ]
    NA   [     3,    0,    1,    0,    0,    2,    1,    1 ]
    NB   [     3,    0,    0,    0,    0,    2,    1,    1 ]

  @DF-UKS Final Energy:  -108.23552146717330

   => Energetics <=

    Nuclear Repulsion Energy =             35.8733933529373559
    One-Electron Energy =                -220.8103460392620718
    Two-Electron Energy =                  88.6265550370663533
    DFT Exchange-Correlation Energy =     -11.9251238179149261
    Empirical Dispersion Energy =           0.0000000000000000
    VV10 Nonlocal Energy =                  0.0000000000000000
    Total Energy =                       -108.2355214671732995

  UHF NO Occupations:
  HONO-2 :    1B3u 1.9999164
  HONO-1 :    2B1u 1.9998696
  HONO-0 :    1B2g 1.0000000
  LUNO+0 :    3B1u 0.0001304
  LUNO+1 :    2B3u 0.0000836
  LUNO+2 :    4 Ag 0.0000759
  LUNO+3 :    2B2u 0.0000040

Computation Completed

Properties will be evaluated at   0.000000,   0.000000,   0.000000 [a0]

Properties computed using the B3LYP density matrix

 Multipole Moments:

 ------------------------------------------------------------------------------------
     Multipole            Electronic (a.u.)      Nuclear  (a.u.)        Total (a.u.)
 ------------------------------------------------------------------------------------

 L = 1.  Multiply by 2.5417464519 to convert [e a0] to [Debye]
 Dipole X            :          0.0000000            0.0000000            0.0000000
 Dipole Y            :          0.0000000            0.0000000            0.0000000
 Dipole Z            :          0.0000000            0.0000000            0.0000000
 Magnitude           :                                                    0.0000000

 L = 2.  Multiply by 1.3450342976 to convert [e a0^2] to [Debye ang]
 Quadrupole XX       :        -10.3107994            0.0000000          -10.3107994
 Quadrupole XY       :          0.0000000            0.0000000            0.0000000
 Quadrupole XZ       :          0.0000000            0.0000000            0.0000000
 Quadrupole YY       :         -8.0588294            0.0000000           -8.0588294
 Quadrupole YZ       :          0.0000000            0.0000000            0.0000000
 Quadrupole ZZ       :        -19.2615793            6.5300316          -12.7315477
 Traceless XX        :          2.2329366           -2.1766772            0.0562594
 Traceless YY        :          4.4849066           -2.1766772            2.3082294
 Traceless ZZ        :         -6.7178433            4.3533544           -2.3644889

 ------------------------------------------------------------------------------------
  ==> Computing MBIS Charges <==

  Electron Count from Grid (Expected Number): 15.00000 (15.00000)
  Difference: -0.00000

  MBIS Charges: (a.u.)
   Center  Symbol  Z      Pop.       Charge
      1       N    7    7.500000   -0.500000
      2       N    7    7.500000   -0.500000

  MBIS Dipoles: [e a0]
   Center  Symbol  Z        X           Y           Z
      1       N    7    0.000000   -0.000000    0.316930
      2       N    7    0.000000    0.000000   -0.316930

  MBIS Quadrupoles: [e a0^2]
   Center  Symbol  Z      XX        XY        XZ        YY        YZ        ZZ
      1       N    7   -5.1554   -0.0000    0.0000   -4.0294   -0.0000   -5.6997
      2       N    7   -5.1554   -0.0000    0.0000   -4.0294    0.0000   -5.6997

  MBIS Octupoles: [e a0^3]
   Center  Symbol  Z      XXX       XXY       XXZ       XYY       XYZ       XZZ       YYY       YYZ       YZZ       ZZZ
      1       N    7   -0.0000   -0.0000    1.3155   -0.0000   -0.0000   -0.0000    0.0000    0.5823    0.0000    1.1711
      2       N    7    0.0000    0.0000   -1.3155   -0.0000   -0.0000    0.0000   -0.0000   -0.5823    0.0000   -1.1711

  MBIS Radial Moments:
   Center  Symbol  Z      [a0^2]      [a0^3]      [a0^4]
      1       N    7   14.884474   35.192346   100.461367
      2       N    7   14.884474   35.192346   100.461367

  MBIS Valence Widths: [a0]
   Center  Symbol  Z     Width
      1       N    7    0.456799
      2       N    7    0.456799

*** tstop() called on Mac.lan at Sun Aug 10 17:32:49 2025
Module time:
	user time   =       3.65 seconds =       0.06 minutes
	system time =       1.93 seconds =       0.03 minutes
	total time  =          0 seconds =       0.00 minutes
Total time:
	user time   =      17.64 seconds =       0.29 minutes
	system time =       3.13 seconds =       0.05 minutes
	total time  =          2 seconds =       0.03 minutes

    Psi4 stopped on: Sunday, 10 August 2025 05:32PM
    Psi4 wall time for execution: 0:00:02.03

*** Psi4 exiting successfully. Buy a developer a beer!
