                               Psi4 1.9.1 release

  ==> Input File <==

--------------------------------------------------------------------------
molecule {
-1 2
H           0.000000           0.000000           0.000000
H           0.000000           0.000000           1.199318
}

set {
basis              cc-pvtz
reference          uks
maxiter            500
DAMPING_PERCENTAGE 1
E_CONVERGENCE      1.0E-8
D_CONVERGENCE      1.0E-8
DIIS_MAX_VECS      400
MBIS_MAXITER       8000
guess              read
}

E, wfn = energy('b3lyp', restart_file='last_wfn', return_wfn=True)
properties('b3lyp','MBIS_CHARGES', wfn=wfn)
wfn.to_file('last_wfn')
--------------------------------------------------------------------------

    Molecular point group: d2h
  Charge       = -1
  Multiplicity = 2
  Basis Set: CC-PVTZ
    Blend: CC-PVTZ
  Basis Set: (CC-PVTZ AUX)
    Blend: CC-PVTZ-JKFIT
  @DF-UKS Final Energy:    -1.05811079407278
    Total Energy =                         -1.0581107940727845
 Dipole X            :          0.0000000            0.0000000            0.0000000
 Dipole Y            :          0.0000000            0.0000000            0.0000000
 Dipole Z            :          0.0000000            0.0000000            0.0000000
 Magnitude           :                                                    0.0000000
    Molecular point group: d2h

    Geometry (in Angstrom), charge = -1, multiplicity = 2:

       Center              X                  Y                   Z               Mass
    ------------   -----------------  -----------------  -----------------  -----------------
         H            0.000000000000     0.000000000000    -0.599659000000     1.007825032230
         H            0.000000000000     0.000000000000     0.599659000000     1.007825032230

  Charge       = -1
  Multiplicity = 2
  Basis Set: CC-PVTZ
    Blend: CC-PVTZ
  Basis Set: (CC-PVTZ AUX)
    Blend: CC-PVTZ-JKFIT

    Orbital Energies [Eh]
    ---------------------

    Alpha Occupied:

       1Ag    -0.063808     1B1u    0.161560

    Alpha Virtual:

       2Ag     0.473359     2B1u    0.582527     1B3u    0.795270
       1B2u    0.795270     3Ag     1.031090     1B2g    1.109785
       1B3g    1.109785     3B1u    1.519175     4Ag     2.566316
       4B1u    2.699107     2B3u    3.169256     2B2u    3.169256
       5Ag     3.249498     6Ag     3.339075     1B1g    3.339075
       5B1u    3.709376     1Au     3.709376     3B2u    3.909279
       3B3u    3.909279     2B2g    3.983791     2B3g    3.983791
       6B1u    4.088991     3B2g    4.501477     3B3g    4.501477
       7Ag     4.631983     7B1u    5.797766

    Beta Occupied:

       1Ag    -0.021528

    Beta Virtual:

       1B1u    0.263510     2Ag     0.492003     2B1u    0.632488
       1B3u    0.813249     1B2u    0.813249     3Ag     1.073924
       1B2g    1.149285     1B3g    1.149285     3B1u    1.561759
       4Ag     2.611966     4B1u    2.749004     2B3u    3.190890
       2B2u    3.190890     5Ag     3.275636     6Ag     3.367994
       1B1g    3.367994     5B1u    3.743849     1Au     3.743849
       3B2u    3.956317     3B3u    3.956317     2B2g    4.029729
       2B3g    4.029729     6B1u    4.145104     3B2g    4.538100
       3B3g    4.538100     7Ag     4.679576     7B1u    5.829653

    Final Occupation by Irrep:
             Ag   B1g   B2g   B3g    Au   B1u   B2u   B3u
    DOCC [     1,    0,    0,    0,    0,    0,    0,    0 ]
    SOCC [     0,    0,    0,    0,    0,    1,    0,    0 ]
    NA   [     1,    0,    0,    0,    0,    1,    0,    0 ]
    NB   [     1,    0,    0,    0,    0,    0,    0,    0 ]

  @DF-UKS Final Energy:    -1.05811079436678

   => Energetics <=

    Nuclear Repulsion Energy =              0.4412317756174759
    One-Electron Energy =                  -2.5820794217041740
    Two-Electron Energy =                   1.7625402639338570
    DFT Exchange-Correlation Energy =      -0.6798034122139409
    Empirical Dispersion Energy =           0.0000000000000000
    VV10 Nonlocal Energy =                  0.0000000000000000
    Total Energy =                         -1.0581107943667822

  UHF NO Occupations:
  HONO-1 :    1 Ag 1.9991333
  HONO-0 :    1B1u 1.0000000
  LUNO+0 :    2 Ag 0.0008667
  LUNO+1 :    3 Ag 0.0000000
  LUNO+2 :    2B1u 0.0000000
  LUNO+3 :    4 Ag 0.0000000

Computation Completed

Properties will be evaluated at   0.000000,   0.000000,   0.000000 [a0]

Properties computed using the B3LYP density matrix

 Multipole Moments:

 ------------------------------------------------------------------------------------
     Multipole            Electronic (a.u.)      Nuclear  (a.u.)        Total (a.u.)
 ------------------------------------------------------------------------------------

 L = 1.  Multiply by 2.5417464519 to convert [e a0] to [Debye]
 Dipole X            :          0.0000000            0.0000000            0.0000000
 Dipole Y            :          0.0000000            0.0000000            0.0000000
 Dipole Z            :          0.0000000            0.0000000            0.0000000
 Magnitude           :                                                    0.0000000

 L = 2.  Multiply by 1.3450342976 to convert [e a0^2] to [Debye ang]
 Quadrupole XX       :         -4.3111438            0.0000000           -4.3111438
 Quadrupole XY       :          0.0000000            0.0000000            0.0000000
 Quadrupole XZ       :          0.0000000            0.0000000            0.0000000
 Quadrupole YY       :         -4.3111438            0.0000000           -4.3111438
 Quadrupole YZ       :          0.0000000            0.0000000            0.0000000
 Quadrupole ZZ       :        -10.4939589            2.5682449           -7.9257140
 Traceless XX        :          2.0609384           -0.8560816            1.2048567
 Traceless YY        :          2.0609384           -0.8560816            1.2048567
 Traceless ZZ        :         -4.1218768            1.7121633           -2.4097135

 ------------------------------------------------------------------------------------
  ==> Computing MBIS Charges <==

  Electron Count from Grid (Expected Number):  3.00000 ( 3.00000)
  Difference:  0.00000

  MBIS Charges: (a.u.)
   Center  Symbol  Z      Pop.       Charge
      1       H    1    1.500000   -0.500000
      2       H    1    1.500000   -0.500000

  MBIS Dipoles: [e a0]
   Center  Symbol  Z        X           Y           Z
      1       H    1    0.000000   -0.000000    0.245461
      2       H    1   -0.000000    0.000000   -0.245461

  MBIS Quadrupoles: [e a0^2]
   Center  Symbol  Z      XX        XY        XZ        YY        YZ        ZZ
      1       H    1   -2.1556   -0.0000    0.0000   -2.1556   -0.0000   -2.7645
      2       H    1   -2.1556   -0.0000    0.0000   -2.1556    0.0000   -2.7645

  MBIS Octupoles: [e a0^3]
   Center  Symbol  Z      XXX       XXY       XXZ       XYY       XYZ       XZZ       YYY       YYZ       YZZ       ZZZ
      1       H    1    0.0000   -0.0000    0.5956   -0.0000    0.0000   -0.0000   -0.0000    0.5956   -0.0000    1.0527
      2       H    1   -0.0000   -0.0000   -0.5956    0.0000   -0.0000    0.0000    0.0000   -0.5956    0.0000   -1.0527

  MBIS Radial Moments:
   Center  Symbol  Z      [a0^2]      [a0^3]      [a0^4]
      1       H    1    7.075630   21.889022   78.749748
      2       H    1    7.075630   21.889022   78.749748

  MBIS Valence Widths: [a0]
   Center  Symbol  Z     Width
      1       H    1    0.624390
      2       H    1    0.624390

*** tstop() called on Mac.lan at Sun Aug 10 17:26:16 2025
Module time:
	user time   =       0.57 seconds =       0.01 minutes
	system time =       1.21 seconds =       0.02 minutes
	total time  =          0 seconds =       0.00 minutes
Total time:
	user time   =       1.97 seconds =       0.03 minutes
	system time =       3.04 seconds =       0.05 minutes
	total time  =          0 seconds =       0.00 minutes

    Psi4 stopped on: Sunday, 10 August 2025 05:26PM
    Psi4 wall time for execution: 0:00:00.82

*** Psi4 exiting successfully. Buy a developer a beer!
