                               Psi4 1.9.1 release

  ==> Input File <==

--------------------------------------------------------------------------
molecule {
-1 1
N           0.000000           0.000000           0.000000
C           0.000000           0.000000           1.316269
}

set {
basis              cc-pvtz
reference          uks
maxiter            500
DAMPING_PERCENTAGE 1
E_CONVERGENCE      1.0E-8
D_CONVERGENCE      1.0E-8
DIIS_MAX_VECS      400
MBIS_MAXITER       8000
guess              read
}

E, wfn = energy('b3lyp', restart_file='last_wfn', return_wfn=True)
properties('b3lyp','MBIS_CHARGES', wfn=wfn)
wfn.to_file('last_wfn')
--------------------------------------------------------------------------

    Molecular point group: c2v
  Charge       = -1
  Multiplicity = 1
  Basis Set: CC-PVTZ
    Blend: CC-PVTZ
  Basis Set: (CC-PVTZ AUX)
    Blend: CC-PVTZ-JKFIT
  @DF-UKS Final Energy:   -92.85083845033812
    Total Energy =                        -92.8508384503381166
 Dipole X            :          0.0000000            0.0000000            0.0000000
 Dipole Y            :          0.0000000            0.0000000            0.0000000
 Dipole Z            :         -0.1912026            0.0017643           -0.1894383
 Magnitude           :                                                    0.1894383
    Molecular point group: c2v

    Geometry (in Angstrom), charge = -1, multiplicity = 1:

       Center              X                  Y                   Z               Mass
    ------------   -----------------  -----------------  -----------------  -----------------
         N            0.000000000000     0.000000000000    -0.607436951389    14.003074004430
         C            0.000000000000     0.000000000000     0.708832048611    12.000000000000

  Charge       = -1
  Multiplicity = 1
  Basis Set: CC-PVTZ
    Blend: CC-PVTZ
  Basis Set: (CC-PVTZ AUX)
    Blend: CC-PVTZ-JKFIT

    Orbital Energies [Eh]
    ---------------------

    Alpha Occupied:

       1A1   -14.044470     2A1    -9.929896     3A1    -0.551937
       4A1    -0.162240     1B2    -0.030465     1B1    -0.030465
       5A1    -0.022914

    Alpha Virtual:

       2B1     0.267275     2B2     0.267275     6A1     0.406146
       3B2     0.565070     3B1     0.565070     7A1     0.577845
       8A1     0.700880     4B2     0.776846     4B1     0.776846
       9A1     0.797156     1A2     0.931973    10A1     0.931973
       5B2     1.099740     5B1     1.099740    11A1     1.155162
       2A2     1.425743    12A1     1.425743    13A1     1.466765
       6B2     1.766231     6B1     1.766231    14A1     1.997838
       7B1     2.316785     7B2     2.316785    15A1     2.509060
       8B2     2.970078     8B1     2.970078     3A2     3.004321
      16A1     3.004321     9B2     3.042179     9B1     3.042179
      17A1     3.192874    10B2     3.263602    10B1     3.263602
       4A2     3.277619    18A1     3.277620    19A1     3.368067
      11B2     3.668966    11B1     3.668966    20A1     3.877961
      12B1     4.215263    12B2     4.215263     5A2     4.547047
      21A1     4.547048    22A1     4.823488     6A2     4.823493
      13B2     5.020656    13B1     5.020656    23A1     5.052077
      14B2     5.527471    14B1     5.527471    24A1     5.531582
      25A1     5.721907    26A1    10.301774

    Beta Occupied:

       1A1   -14.044470     2A1    -9.929896     3A1    -0.551937
       4A1    -0.162240     1B2    -0.030465     1B1    -0.030465
       5A1    -0.022914

    Beta Virtual:

       2B1     0.267275     2B2     0.267275     6A1     0.406146
       3B2     0.565070     3B1     0.565070     7A1     0.577845
       8A1     0.700880     4B2     0.776846     4B1     0.776846
       9A1     0.797156     1A2     0.931973    10A1     0.931973
       5B2     1.099740     5B1     1.099740    11A1     1.155162
       2A2     1.425743    12A1     1.425743    13A1     1.466765
       6B2     1.766231     6B1     1.766231    14A1     1.997838
       7B1     2.316785     7B2     2.316785    15A1     2.509060
       8B2     2.970078     8B1     2.970078     3A2     3.004321
      16A1     3.004321     9B2     3.042179     9B1     3.042179
      17A1     3.192874    10B2     3.263602    10B1     3.263602
       4A2     3.277619    18A1     3.277620    19A1     3.368067
      11B2     3.668966    11B1     3.668966    20A1     3.877961
      12B1     4.215263    12B2     4.215263     5A2     4.547047
      21A1     4.547048    22A1     4.823488     6A2     4.823493
      13B2     5.020656    13B1     5.020656    23A1     5.052077
      14B2     5.527471    14B1     5.527471    24A1     5.531582
      25A1     5.721907    26A1    10.301774

    Final Occupation by Irrep:
             A1    A2    B1    B2
    DOCC [     5,    0,    1,    1 ]
    SOCC [     0,    0,    0,    0 ]
    NA   [     5,    0,    1,    1 ]
    NB   [     5,    0,    1,    1 ]

  @DF-UKS Final Energy:   -92.85083845001400

   => Energetics <=

    Nuclear Repulsion Energy =             16.8851829285199315
    One-Electron Energy =                -162.7336655339675815
    Two-Electron Energy =                  62.9848416159809119
    DFT Exchange-Correlation Energy =      -9.9871974605472449
    Empirical Dispersion Energy =           0.0000000000000000
    VV10 Nonlocal Energy =                  0.0000000000000000
    Total Energy =                        -92.8508384500139954

  UHF NO Occupations:
  HONO-2 :    1 B1 2.0000000
  HONO-1 :    4 A1 2.0000000
  HONO-0 :    5 A1 2.0000000
  LUNO+0 :    6 A1 0.0000000
  LUNO+1 :    7 A1 0.0000000
  LUNO+2 :    8 A1 0.0000000
  LUNO+3 :    9 A1 0.0000000

Computation Completed

Properties will be evaluated at   0.000000,   0.000000,   0.000000 [a0]

Properties computed using the B3LYP density matrix

 Multipole Moments:

 ------------------------------------------------------------------------------------
     Multipole            Electronic (a.u.)      Nuclear  (a.u.)        Total (a.u.)
 ------------------------------------------------------------------------------------

 L = 1.  Multiply by 2.5417464519 to convert [e a0] to [Debye]
 Dipole X            :          0.0000000            0.0000000            0.0000000
 Dipole Y            :          0.0000000            0.0000000            0.0000000
 Dipole Z            :         -0.1912026            0.0017643           -0.1894383
 Magnitude           :                                                    0.1894383

 L = 2.  Multiply by 1.3450342976 to convert [e a0^2] to [Debye ang]
 Quadrupole XX       :        -10.6295093            0.0000000          -10.6295093
 Quadrupole XY       :          0.0000000            0.0000000            0.0000000
 Quadrupole XZ       :          0.0000000            0.0000000            0.0000000
 Quadrupole YY       :        -10.6295093            0.0000000          -10.6295093
 Quadrupole YZ       :          0.0000000            0.0000000            0.0000000
 Quadrupole ZZ       :        -34.1751640           19.9890882          -14.1860758
 Traceless XX        :          7.8485516           -6.6630294            1.1855222
 Traceless YY        :          7.8485516           -6.6630294            1.1855222
 Traceless ZZ        :        -15.6971031           13.3260588           -2.3710443

 ------------------------------------------------------------------------------------
  ==> Computing MBIS Charges <==

  Electron Count from Grid (Expected Number): 14.00000 (14.00000)
  Difference:  0.00000

  MBIS Charges: (a.u.)
   Center  Symbol  Z      Pop.       Charge
      1       N    7    7.535658   -0.535658
      2       C    6    6.464342   -0.464342

  MBIS Dipoles: [e a0]
   Center  Symbol  Z        X           Y           Z
      1       N    7    0.000000   -0.000000    0.066638
      2       C    6   -0.000000    0.000000   -0.248967

  MBIS Quadrupoles: [e a0^2]
   Center  Symbol  Z      XX        XY        XZ        YY        YZ        ZZ
      1       N    7   -4.9811   -0.0000   -0.0000   -4.9811    0.0000   -5.4109
      2       C    6   -5.6484    0.0000    0.0000   -5.6484    0.0000   -6.4162

  MBIS Octupoles: [e a0^3]
   Center  Symbol  Z      XXX       XXY       XXZ       XYY       XYZ       XZZ       YYY       YYZ       YZZ       ZZZ
      1       N    7   -0.0000    0.0000    0.0316    0.0000    0.0000   -0.0000   -0.0000    0.0316    0.0000    0.1945
      2       C    6   -0.0000   -0.0000   -0.2190   -0.0000   -0.0000   -0.0000    0.0000   -0.2190    0.0000   -0.6355

  MBIS Radial Moments:
   Center  Symbol  Z      [a0^2]      [a0^3]      [a0^4]
      1       N    7   15.373161   34.965614   94.662141
      2       C    6   17.713008   47.253638   148.413203

  MBIS Valence Widths: [a0]
   Center  Symbol  Z     Width
      1       N    7    0.469901
      2       C    6    0.561695

*** tstop() called on Mac.lan at Sun Aug 10 17:40:37 2025
Module time:
	user time   =       3.09 seconds =       0.05 minutes
	system time =       2.37 seconds =       0.04 minutes
	total time  =          1 seconds =       0.02 minutes
Total time:
	user time   =      16.83 seconds =       0.28 minutes
	system time =       4.66 seconds =       0.08 minutes
	total time  =          2 seconds =       0.03 minutes

    Psi4 stopped on: Sunday, 10 August 2025 05:40PM
    Psi4 wall time for execution: 0:00:02.08

*** Psi4 exiting successfully. Buy a developer a beer!
