                               Psi4 1.9.1 release

  ==> Input File <==

--------------------------------------------------------------------------
molecule {
-1 2
C           0.000000           0.000000           0.000000
C           0.000000           0.000000           1.737325
}

set {
basis              cc-pvtz
reference          uks
maxiter            500
DAMPING_PERCENTAGE 1
E_CONVERGENCE      1.0E-8
D_CONVERGENCE      1.0E-8
DIIS_MAX_VECS      400
MBIS_MAXITER       8000
guess              read
}

E, wfn = energy('b3lyp', restart_file='last_wfn', return_wfn=True)
properties('b3lyp','MBIS_CHARGES', wfn=wfn)
wfn.to_file('last_wfn')
--------------------------------------------------------------------------

    Molecular point group: d2h
  Charge       = -1
  Multiplicity = 2
  Basis Set: CC-PVTZ
    Blend: CC-PVTZ
  Basis Set: (CC-PVTZ AUX)
    Blend: CC-PVTZ-JKFIT
  @DF-UKS Final Energy:   -75.92448319372924
    Total Energy =                        -75.9244831937292446
 Dipole X            :          0.0000000            0.0000000            0.0000000
 Dipole Y            :          0.0000000            0.0000000            0.0000000
 Dipole Z            :          0.0000000           -0.0000000           -0.0000000
 Magnitude           :                                                    0.0000000
    Molecular point group: d2h

    Geometry (in Angstrom), charge = -1, multiplicity = 2:

       Center              X                  Y                   Z               Mass
    ------------   -----------------  -----------------  -----------------  -----------------
         C            0.000000000000     0.000000000000    -0.868662500000    12.000000000000
         C            0.000000000000     0.000000000000     0.868662500000    12.000000000000

  Charge       = -1
  Multiplicity = 2
  Basis Set: CC-PVTZ
    Blend: CC-PVTZ
  Basis Set: (CC-PVTZ AUX)
    Blend: CC-PVTZ-JKFIT

    Orbital Energies [Eh]
    ---------------------

    Alpha Occupied:

       1Ag   -10.007939     1B1u  -10.007786     2Ag    -0.380570
       2B1u   -0.201893     3Ag    -0.041762     1B3u    0.017358
       1B2u    0.017358

    Alpha Virtual:

       1B2g    0.185295     1B3g    0.185295     3B1u    0.334392
       4B1u    0.511100     4Ag     0.518767     2B3u    0.541263
       2B2u    0.541263     2B3g    0.590244     2B2g    0.590244
       5Ag     0.608619     1B1g    0.864830     6Ag     0.864830
       5B1u    0.876772     3B2u    0.894199     3B3u    0.894199
       1Au     1.051596     6B1u    1.051596     7Ag     1.299854
       3B3g    1.313238     3B2g    1.313238     7B1u    1.348004
       4B2u    2.167628     4B3u    2.167628     8Ag     2.226432
       4B3g    2.306302     4B2g    2.306302     5B2u    2.704534
       5B3u    2.704534     9Ag     2.731112     2B1g    2.731112
      10Ag     2.739958     8B1u    2.762468     6B2u    2.912444
       6B3u    2.912444     5B3g    3.008457     5B2g    3.008457
       9B1u    3.193815     2Au     3.193818    11Ag     3.204082
       3B1g    3.204091    10B1u    3.304593     6B3g    3.322385
       6B2g    3.322385    11B1u    3.346700     3Au     3.346707
       7B2u    3.357476     7B3u    3.357476    12B1u    3.680324
      12Ag     3.777095     7B3g    3.939122     7B2g    3.939122
      13Ag     4.237939    13B1u    6.048401

    Beta Occupied:

       1Ag   -10.000573     1B1u  -10.000494     2Ag    -0.348999
       2B1u   -0.153671     1B3u    0.024486     1B2u    0.024486

    Beta Virtual:

       3Ag     0.088547     1B2g    0.194700     1B3g    0.194700
       3B1u    0.354289     2B3u    0.545076     2B2u    0.545076
       4Ag     0.548589     4B1u    0.565335     2B3g    0.593902
       2B2g    0.593902     5Ag     0.621999     6Ag     0.866258
       1B1g    0.866258     5B1u    0.886035     3B2u    0.918938
       3B3u    0.918938     1Au     1.053708     6B1u    1.053708
       7Ag     1.331050     3B3g    1.334290     3B2g    1.334290
       7B1u    1.384748     4B2u    2.177119     4B3u    2.177119
       8Ag     2.270738     4B3g    2.310107     4B2g    2.310107
       5B2u    2.733186     5B3u    2.733186     9Ag     2.752452
       2B1g    2.752453    10Ag     2.783459     8B1u    2.793428
       6B2u    2.912143     6B3u    2.912143     5B3g    3.007814
       5B2g    3.007814     9B1u    3.195515     2Au     3.195519
      11Ag     3.205256     3B1g    3.205264    10B1u    3.354507
       6B3g    3.358066     6B2g    3.358066    11B1u    3.364442
       3Au     3.364449     7B2u    3.396478     7B3u    3.396478
      12B1u    3.722477    12Ag     3.828044     7B3g    3.972719
       7B2g    3.972719    13Ag     4.255130    13B1u    6.070098

    Final Occupation by Irrep:
             Ag   B1g   B2g   B3g    Au   B1u   B2u   B3u
    DOCC [     2,    0,    0,    0,    0,    2,    1,    1 ]
    SOCC [     1,    0,    0,    0,    0,    0,    0,    0 ]
    NA   [     3,    0,    0,    0,    0,    2,    1,    1 ]
    NB   [     2,    0,    0,    0,    0,    2,    1,    1 ]

  @DF-UKS Final Energy:   -75.92448319385959

   => Energetics <=

    Nuclear Repulsion Energy =             10.9653516665678588
    One-Electron Energy =                -126.5112406614698273
    Two-Electron Energy =                  48.2239549497454831
    DFT Exchange-Correlation Energy =      -8.6025491487030870
    Empirical Dispersion Energy =           0.0000000000000000
    VV10 Nonlocal Energy =                  0.0000000000000000
    Total Energy =                        -75.9244831938595865

  UHF NO Occupations:
  HONO-2 :    2 Ag 1.9995790
  HONO-1 :    2B1u 1.9970616
  HONO-0 :    3 Ag 1.0000000
  LUNO+0 :    3B1u 0.0029384
  LUNO+1 :    4 Ag 0.0004210
  LUNO+2 :    2B3u 0.0001012
  LUNO+3 :    2B2u 0.0001012

Computation Completed

Properties will be evaluated at   0.000000,   0.000000,   0.000000 [a0]

Properties computed using the B3LYP density matrix

 Multipole Moments:

 ------------------------------------------------------------------------------------
     Multipole            Electronic (a.u.)      Nuclear  (a.u.)        Total (a.u.)
 ------------------------------------------------------------------------------------

 L = 1.  Multiply by 2.5417464519 to convert [e a0] to [Debye]
 Dipole X            :          0.0000000            0.0000000            0.0000000
 Dipole Y            :          0.0000000            0.0000000            0.0000000
 Dipole Z            :          0.0000000           -0.0000000           -0.0000000
 Magnitude           :                                                    0.0000000

 L = 2.  Multiply by 1.3450342976 to convert [e a0^2] to [Debye ang]
 Quadrupole XX       :        -12.6260641            0.0000000          -12.6260641
 Quadrupole XY       :          0.0000000            0.0000000            0.0000000
 Quadrupole XZ       :          0.0000000            0.0000000            0.0000000
 Quadrupole YY       :        -12.6260641            0.0000000          -12.6260641
 Quadrupole YZ       :          0.0000000            0.0000000            0.0000000
 Quadrupole ZZ       :        -46.3143049           32.3356152          -13.9786897
 Traceless XX        :         11.2294136          -10.7785384            0.4508752
 Traceless YY        :         11.2294136          -10.7785384            0.4508752
 Traceless ZZ        :        -22.4588272           21.5570768           -0.9017504

 ------------------------------------------------------------------------------------
  ==> Computing MBIS Charges <==

  Electron Count from Grid (Expected Number): 13.00000 (13.00000)
  Difference: -0.00000

  MBIS Charges: (a.u.)
   Center  Symbol  Z      Pop.       Charge
      1       C    6    6.500000   -0.500000
      2       C    6    6.500000   -0.500000

  MBIS Dipoles: [e a0]
   Center  Symbol  Z        X           Y           Z
      1       C    6   -0.000000    0.000000   -0.147555
      2       C    6   -0.000000   -0.000000    0.147555

  MBIS Quadrupoles: [e a0^2]
   Center  Symbol  Z      XX        XY        XZ        YY        YZ        ZZ
      1       C    6   -6.3130    0.0000   -0.0000   -6.3130   -0.0000   -6.1265
      2       C    6   -6.3130    0.0000    0.0000   -6.3130    0.0000   -6.1265

  MBIS Octupoles: [e a0^3]
   Center  Symbol  Z      XXX       XXY       XXZ       XYY       XYZ       XZZ       YYY       YYZ       YZZ       ZZZ
      1       C    6   -0.0000   -0.0000   -0.6336   -0.0000    0.0000   -0.0000    0.0000   -0.6336    0.0000   -1.4432
      2       C    6   -0.0000   -0.0000    0.6336   -0.0000   -0.0000   -0.0000    0.0000    0.6336    0.0000    1.4432

  MBIS Radial Moments:
   Center  Symbol  Z      [a0^2]      [a0^3]      [a0^4]
      1       C    6   18.752524   51.544187   167.187195
      2       C    6   18.752524   51.544187   167.187195

  MBIS Valence Widths: [a0]
   Center  Symbol  Z     Width
      1       C    6    0.576237
      2       C    6    0.576237

*** tstop() called on Mac.lan at Sun Aug 10 17:31:43 2025
Module time:
	user time   =       3.99 seconds =       0.07 minutes
	system time =       1.73 seconds =       0.03 minutes
	total time  =          1 seconds =       0.02 minutes
Total time:
	user time   =      17.38 seconds =       0.29 minutes
	system time =       3.69 seconds =       0.06 minutes
	total time  =          2 seconds =       0.03 minutes

    Psi4 stopped on: Sunday, 10 August 2025 05:31PM
    Psi4 wall time for execution: 0:00:02.05

*** Psi4 exiting successfully. Buy a developer a beer!
