                               Psi4 1.9.1 release

  ==> Input File <==

--------------------------------------------------------------------------
molecule {
-1 2
H           0.000000           0.000000           0.000000
H           0.000000           0.000000           0.762339
}

set {
basis              cc-pvtz
reference          uks
maxiter            500
DAMPING_PERCENTAGE 1
E_CONVERGENCE      1.0E-8
D_CONVERGENCE      1.0E-8
DIIS_MAX_VECS      400
MBIS_MAXITER       8000
guess              read
}

E, wfn = energy('b3lyp', restart_file='last_wfn', return_wfn=True)
properties('b3lyp','MBIS_CHARGES', wfn=wfn)
wfn.to_file('last_wfn')
--------------------------------------------------------------------------

    Molecular point group: d2h
  Charge       = -1
  Multiplicity = 2
  Basis Set: CC-PVTZ
    Blend: CC-PVTZ
  Basis Set: (CC-PVTZ AUX)
    Blend: CC-PVTZ-JKFIT
  @DF-UKS Final Energy:    -1.04626134869381
    Total Energy =                         -1.0462613486938135
 Dipole X            :          0.0000000            0.0000000            0.0000000
 Dipole Y            :          0.0000000            0.0000000            0.0000000
 Dipole Z            :          0.0000000            0.0000000            0.0000000
 Magnitude           :                                                    0.0000000
    Molecular point group: d2h

    Geometry (in Angstrom), charge = -1, multiplicity = 2:

       Center              X                  Y                   Z               Mass
    ------------   -----------------  -----------------  -----------------  -----------------
         H            0.000000000000     0.000000000000    -0.381169500000     1.007825032230
         H            0.000000000000     0.000000000000     0.381169500000     1.007825032230

  Charge       = -1
  Multiplicity = 2
  Basis Set: CC-PVTZ
    Blend: CC-PVTZ
  Basis Set: (CC-PVTZ AUX)
    Blend: CC-PVTZ-JKFIT

    Orbital Energies [Eh]
    ---------------------

    Alpha Occupied:

       1Ag    -0.136150     1B1u    0.219357

    Alpha Virtual:

       2Ag     0.422111     2B1u    0.710229     1B2u    0.800330
       1B3u    0.800330     3Ag     1.176405     1B2g    1.205297
       1B3g    1.205297     3B1u    1.625265     4B1u    2.326567
       4Ag     2.395933     5Ag     3.187098     1B1g    3.187098
       2B2u    3.378383     2B3u    3.378383     6Ag     3.645831
       2B2g    3.912639     2B3g    3.912639     5B1u    4.075180
       1Au     4.075180     3B3u    4.094460     3B2u    4.094460
       6B1u    4.582027     3B2g    5.622409     3B3g    5.622409
       7Ag     5.676791     7B1u    6.737395

    Beta Occupied:

       1Ag    -0.118186

    Beta Virtual:

       1B1u    0.313923     2Ag     0.441317     2B1u    0.746383
       1B2u    0.806671     1B3u    0.806671     3Ag     1.216089
       1B2g    1.232832     1B3g    1.232832     3B1u    1.656478
       4B1u    2.353853     4Ag     2.402894     5Ag     3.191735
       1B1g    3.191735     2B2u    3.380062     2B3u    3.380062
       6Ag     3.677105     2B2g    3.940030     2B3g    3.940030
       1Au     4.089308     5B1u    4.089308     3B3u    4.117676
       3B2u    4.117676     6B1u    4.610483     3B2g    5.637369
       3B3g    5.637369     7Ag     5.695059     7B1u    6.754077

    Final Occupation by Irrep:
             Ag   B1g   B2g   B3g    Au   B1u   B2u   B3u
    DOCC [     1,    0,    0,    0,    0,    0,    0,    0 ]
    SOCC [     0,    0,    0,    0,    0,    1,    0,    0 ]
    NA   [     1,    0,    0,    0,    0,    1,    0,    0 ]
    NB   [     1,    0,    0,    0,    0,    0,    0,    0 ]

  @DF-UKS Final Energy:    -1.04626134981808

   => Energetics <=

    Nuclear Repulsion Energy =              0.6941494671924174
    One-Electron Energy =                  -2.9223156354701940
    Two-Electron Energy =                   1.9056947160925355
    DFT Exchange-Correlation Energy =      -0.7237898976328400
    Empirical Dispersion Energy =           0.0000000000000000
    VV10 Nonlocal Energy =                  0.0000000000000000
    Total Energy =                         -1.0462613498180811

  UHF NO Occupations:
  HONO-1 :    1 Ag 1.9996641
  HONO-0 :    1B1u 1.0000000
  LUNO+0 :    2 Ag 0.0003359
  LUNO+1 :    3 Ag 0.0000000
  LUNO+2 :    4 Ag 0.0000000
  LUNO+3 :    2B1u 0.0000000

Computation Completed

Properties will be evaluated at   0.000000,   0.000000,   0.000000 [a0]

Properties computed using the B3LYP density matrix

 Multipole Moments:

 ------------------------------------------------------------------------------------
     Multipole            Electronic (a.u.)      Nuclear  (a.u.)        Total (a.u.)
 ------------------------------------------------------------------------------------

 L = 1.  Multiply by 2.5417464519 to convert [e a0] to [Debye]
 Dipole X            :          0.0000000            0.0000000            0.0000000
 Dipole Y            :          0.0000000            0.0000000            0.0000000
 Dipole Z            :          0.0000000            0.0000000            0.0000000
 Magnitude           :                                                    0.0000000

 L = 2.  Multiply by 1.3450342976 to convert [e a0^2] to [Debye ang]
 Quadrupole XX       :         -4.1855507            0.0000000           -4.1855507
 Quadrupole XY       :          0.0000000            0.0000000            0.0000000
 Quadrupole XZ       :          0.0000000            0.0000000            0.0000000
 Quadrupole YY       :         -4.1855507            0.0000000           -4.1855507
 Quadrupole YZ       :          0.0000000            0.0000000            0.0000000
 Quadrupole ZZ       :         -9.8927007            1.0376814           -8.8550193
 Traceless XX        :          1.9023833           -0.3458938            1.5564895
 Traceless YY        :          1.9023833           -0.3458938            1.5564895
 Traceless ZZ        :         -3.8047666            0.6917876           -3.1129791

 ------------------------------------------------------------------------------------
  ==> Computing MBIS Charges <==

  Electron Count from Grid (Expected Number):  3.00000 ( 3.00000)
  Difference: -0.00000

  MBIS Charges: (a.u.)
   Center  Symbol  Z      Pop.       Charge
      1       H    1    1.500000   -0.500000
      2       H    1    1.500000   -0.500000

  MBIS Dipoles: [e a0]
   Center  Symbol  Z        X           Y           Z
      1       H    1   -0.000000    0.000000    0.322584
      2       H    1    0.000000   -0.000000   -0.322584

  MBIS Quadrupoles: [e a0^2]
   Center  Symbol  Z      XX        XY        XZ        YY        YZ        ZZ
      1       H    1   -2.0928   -0.0000    0.0000   -2.0928   -0.0000   -3.7034
      2       H    1   -2.0928   -0.0000   -0.0000   -2.0928    0.0000   -3.7034

  MBIS Octupoles: [e a0^3]
   Center  Symbol  Z      XXX       XXY       XXZ       XYY       XYZ       XZZ       YYY       YYZ       YZZ       ZZZ
      1       H    1   -0.0000    0.0000    0.8926   -0.0000   -0.0000   -0.0000    0.0000    0.8926    0.0000    1.9148
      2       H    1   -0.0000    0.0000   -0.8926   -0.0000    0.0000   -0.0000    0.0000   -0.8926   -0.0000   -1.9148

  MBIS Radial Moments:
   Center  Symbol  Z      [a0^2]      [a0^3]      [a0^4]
      1       H    1    7.888922   26.485421   102.672656
      2       H    1    7.888922   26.485421   102.672656

  MBIS Valence Widths: [a0]
   Center  Symbol  Z     Width
      1       H    1    0.647321
      2       H    1    0.647321

*** tstop() called on Mac.lan at Sun Aug 10 17:25:52 2025
Module time:
	user time   =       0.50 seconds =       0.01 minutes
	system time =       1.35 seconds =       0.02 minutes
	total time  =          0 seconds =       0.00 minutes
Total time:
	user time   =       1.91 seconds =       0.03 minutes
	system time =       3.09 seconds =       0.05 minutes
	total time  =          1 seconds =       0.02 minutes

    Psi4 stopped on: Sunday, 10 August 2025 05:25PM
    Psi4 wall time for execution: 0:00:00.79

*** Psi4 exiting successfully. Buy a developer a beer!
