                               Psi4 1.9.1 release

  ==> Input File <==

--------------------------------------------------------------------------
molecule {
-1 2
O           0.000000           0.000000           0.000000
C           0.000000           0.000000           1.518203
}

set {
basis              cc-pvtz
reference          uks
maxiter            500
DAMPING_PERCENTAGE 1
E_CONVERGENCE      1.0E-8
D_CONVERGENCE      1.0E-8
DIIS_MAX_VECS      400
MBIS_MAXITER       8000
guess              read
}

E, wfn = energy('b3lyp', restart_file='last_wfn', return_wfn=True)
properties('b3lyp','MBIS_CHARGES', wfn=wfn)
wfn.to_file('last_wfn')
--------------------------------------------------------------------------

    Molecular point group: c2v
  Charge       = -1
  Multiplicity = 2
  Basis Set: CC-PVTZ
    Blend: CC-PVTZ
  Basis Set: (CC-PVTZ AUX)
    Blend: CC-PVTZ-JKFIT
  @DF-UKS Final Energy:  -113.22387663735266
    Total Energy =                       -113.2238766373526602
 Dipole X            :          0.0000000            0.0000000            0.0000000
 Dipole Y            :          0.0000000            0.0000000            0.0000000
 Dipole Z            :         -0.3318193           -0.0031270           -0.3349463
 Magnitude           :                                                    0.3349463
    Molecular point group: c2v

    Geometry (in Angstrom), charge = -1, multiplicity = 2:

       Center              X                  Y                   Z               Mass
    ------------   -----------------  -----------------  -----------------  -----------------
         O            0.000000000000     0.000000000000    -0.650776623097    15.994914619570
         C            0.000000000000     0.000000000000     0.867426376903    12.000000000000

  Charge       = -1
  Multiplicity = 2
  Basis Set: CC-PVTZ
    Blend: CC-PVTZ
  Basis Set: (CC-PVTZ AUX)
    Blend: CC-PVTZ-JKFIT

    Orbital Energies [Eh]
    ---------------------

    Alpha Occupied:

       1A1   -18.854827     2A1    -9.980288     3A1    -0.646252
       4A1    -0.253186     1B1    -0.064244     5A1    -0.052310
       1B2    -0.043110     2B1     0.101062

    Alpha Virtual:

       2B2     0.191587     6A1     0.368050     3B1     0.546291
       3B2     0.561482     7A1     0.584703     8A1     0.594014
       9A1     0.820378     4B1     0.896953     4B2     0.900100
       1A2     0.932746    10A1     0.935516     5B1     1.053299
       5B2     1.054086    11A1     1.309571    12A1     1.500531
       2A2     1.785535    13A1     1.786078     6B1     1.979466
       6B2     1.982447    14A1     2.224135     7B1     2.289799
       7B2     2.303486    15A1     2.564502     8B1     2.950572
       8B2     2.951458     3A2     2.997320    16A1     2.999794
       9B1     3.158355     9B2     3.164917    17A1     3.215165
       4A2     3.221502    18A1     3.228855    10B1     3.426897
      10B2     3.433675    19A1     3.516734    20A1     4.038613
      11B1     4.043054    11B2     4.046792    21A1     5.256903
      12B1     5.430661    12B2     5.430696     5A2     5.503610
      22A1     5.504047    13B2     5.798750    13B1     5.801688
      23A1     6.254410     6A2     6.521517    24A1     6.522556
      14B1     6.870610    14B2     6.872535    25A1     7.508330
      26A1     8.705240

    Beta Occupied:

       1A1   -18.849125     2A1    -9.968008     3A1    -0.632639
       4A1    -0.219470     1B2    -0.039990     5A1    -0.037065
       1B1    -0.016842

    Beta Virtual:

       2B2     0.203912     2B1     0.237892     6A1     0.377605
       3B2     0.570262     3B1     0.595639     7A1     0.596275
       8A1     0.609654     9A1     0.825509     4B2     0.900420
       4B1     0.914590     1A2     0.965660    10A1     0.965929
       5B2     1.056252     5B1     1.078382    11A1     1.320490
      12A1     1.505164     2A2     1.795502    13A1     1.795617
       6B2     1.984012     6B1     2.003819    14A1     2.233789
       7B2     2.314121     7B1     2.348107    15A1     2.578828
       8B2     2.996403     8B1     2.996543    16A1     3.024891
       3A2     3.025405     9B2     3.170192     9B1     3.198880
      17A1     3.229871     4A2     3.282758    18A1     3.283272
      10B2     3.437217    10B1     3.467408    19A1     3.535616
      11B2     4.048502    20A1     4.049976    11B1     4.070129
      21A1     5.266091    12B2     5.443427    12B1     5.443431
       5A2     5.512187    22A1     5.512524    13B2     5.798766
      13B1     5.816475    23A1     6.261740     6A2     6.542205
      24A1     6.542327    14B2     6.872478    14B1     6.891788
      25A1     7.516499    26A1     8.715454

    Final Occupation by Irrep:
             A1    A2    B1    B2
    DOCC [     5,    0,    1,    1 ]
    SOCC [     0,    0,    1,    0 ]
    NA   [     5,    0,    2,    1 ]
    NB   [     5,    0,    1,    1 ]

  @DF-UKS Final Energy:  -113.22387660890583

   => Energetics <=

    Nuclear Repulsion Energy =             16.7306388619703696
    One-Electron Energy =                -192.2058352038294231
    Two-Electron Energy =                  73.5712483696376012
    DFT Exchange-Correlation Energy =     -11.3199286366843701
    Empirical Dispersion Energy =           0.0000000000000000
    VV10 Nonlocal Energy =                  0.0000000000000000
    Total Energy =                       -113.2238766089058259

  UHF NO Occupations:
  HONO-2 :    1 B1 1.9990554
  HONO-1 :    5 A1 1.9990065
  HONO-0 :    2 B1 1.0000000
  LUNO+0 :    6 A1 0.0009935
  LUNO+1 :    3 B1 0.0009446
  LUNO+2 :    2 B2 0.0005891
  LUNO+3 :    7 A1 0.0000551

Computation Completed

Properties will be evaluated at   0.000000,   0.000000,   0.000000 [a0]

Properties computed using the B3LYP density matrix

 Multipole Moments:

 ------------------------------------------------------------------------------------
     Multipole            Electronic (a.u.)      Nuclear  (a.u.)        Total (a.u.)
 ------------------------------------------------------------------------------------

 L = 1.  Multiply by 2.5417464519 to convert [e a0] to [Debye]
 Dipole X            :          0.0000000            0.0000000            0.0000000
 Dipole Y            :          0.0000000            0.0000000            0.0000000
 Dipole Z            :         -0.3318214           -0.0031270           -0.3349484
 Magnitude           :                                                    0.3349484

 L = 2.  Multiply by 1.3450342976 to convert [e a0^2] to [Debye ang]
 Quadrupole XX       :        -11.2282604            0.0000000          -11.2282604
 Quadrupole XY       :          0.0000000            0.0000000            0.0000000
 Quadrupole XZ       :          0.0000000            0.0000000            0.0000000
 Quadrupole YY       :         -9.8225479            0.0000000           -9.8225479
 Quadrupole YZ       :          0.0000000            0.0000000            0.0000000
 Quadrupole ZZ       :        -42.2405239           28.2208855          -14.0196384
 Traceless XX        :          9.8688503           -9.4069618            0.4618885
 Traceless YY        :         11.2745629           -9.4069618            1.8676010
 Traceless ZZ        :        -21.1434132           18.8139237           -2.3294895

 ------------------------------------------------------------------------------------
  ==> Computing MBIS Charges <==

  Electron Count from Grid (Expected Number): 15.00000 (15.00000)
  Difference: -0.00000

  MBIS Charges: (a.u.)
   Center  Symbol  Z      Pop.       Charge
      1       O    8    8.539844   -0.539844
      2       C    6    6.460155   -0.460155

  MBIS Dipoles: [e a0]
   Center  Symbol  Z        X           Y           Z
      1       O    8   -0.000000   -0.000000    0.063990
      2       C    6   -0.000000    0.000000   -0.308549

  MBIS Quadrupoles: [e a0^2]
   Center  Symbol  Z      XX        XY        XZ        YY        YZ        ZZ
      1       O    8   -4.6622    0.0000    0.0000   -4.4559   -0.0000   -4.5361
      2       C    6   -6.5661    0.0000    0.0000   -5.3667    0.0000   -6.2618

  MBIS Octupoles: [e a0^3]
   Center  Symbol  Z      XXX       XXY       XXZ       XYY       XYZ       XZZ       YYY       YYZ       YZZ       ZZZ
      1       O    8   -0.0000   -0.0000    0.0686   -0.0000    0.0000   -0.0000   -0.0000    0.0757   -0.0000   -0.0229
      2       C    6   -0.0000   -0.0000   -0.5912   -0.0000    0.0000   -0.0000    0.0000   -0.0887    0.0000   -0.0944

  MBIS Radial Moments:
   Center  Symbol  Z      [a0^2]      [a0^3]      [a0^4]
      1       O    8   13.654124   27.256075   64.988239
      2       C    6   18.194513   49.252692   156.788777

  MBIS Valence Widths: [a0]
   Center  Symbol  Z     Width
      1       O    8    0.407810
      2       C    6    0.570219

*** tstop() called on Mac.lan at Sun Aug 10 17:43:31 2025
Module time:
	user time   =       3.20 seconds =       0.05 minutes
	system time =       2.26 seconds =       0.04 minutes
	total time  =          0 seconds =       0.00 minutes
Total time:
	user time   =      19.80 seconds =       0.33 minutes
	system time =       4.80 seconds =       0.08 minutes
	total time  =          2 seconds =       0.03 minutes

    Psi4 stopped on: Sunday, 10 August 2025 05:43PM
    Psi4 wall time for execution: 0:00:02.41

*** Psi4 exiting successfully. Buy a developer a beer!
