                               Psi4 1.9.1 release

  ==> Input File <==

--------------------------------------------------------------------------
molecule {
-1 3
C           0.000000           0.000000           0.000000
H           0.000000           0.000000           0.592102
}

set {
basis              cc-pvtz
reference          uks
maxiter            500
DAMPING_PERCENTAGE 1
E_CONVERGENCE      1.0E-8
D_CONVERGENCE      1.0E-8
DIIS_MAX_VECS      400
MBIS_MAXITER       8000
guess              read
}

E, wfn = energy('b3lyp', restart_file='last_wfn', return_wfn=True)
properties('b3lyp','MBIS_CHARGES', wfn=wfn)
wfn.to_file('last_wfn')
--------------------------------------------------------------------------

    Molecular point group: c2v
  Charge       = -1
  Multiplicity = 3
  Basis Set: CC-PVTZ
    Blend: CC-PVTZ
  Basis Set: (CC-PVTZ AUX)
    Blend: CC-PVTZ-JKFIT
  @DF-UKS Final Energy:   -38.02120969292240
    Total Energy =                        -38.0212096929223975
 Dipole X            :          0.0000000            0.0000000            0.0000000
 Dipole Y            :          0.0000000            0.0000000            0.0000000
 Dipole Z            :          0.4649778            0.5120711            0.9770488
 Magnitude           :                                                    0.9770488
    Molecular point group: c2v

    Geometry (in Angstrom), charge = -1, multiplicity = 3:

       Center              X                  Y                   Z               Mass
    ------------   -----------------  -----------------  -----------------  -----------------
         C            0.000000000000     0.000000000000    -0.045875095626    12.000000000000
         H            0.000000000000     0.000000000000     0.546226904374     1.007825032230

  Charge       = -1
  Multiplicity = 3
  Basis Set: CC-PVTZ
    Blend: CC-PVTZ
  Basis Set: (CC-PVTZ AUX)
    Blend: CC-PVTZ-JKFIT

    Orbital Energies [Eh]
    ---------------------

    Alpha Occupied:

       1A1    -9.829773     2A1    -0.433444     3A1     0.021328
       1B2     0.092127     1B1     0.092127

    Alpha Virtual:

       4A1     0.295983     5A1     0.532066     2B2     0.572533
       2B1     0.572533     6A1     0.718425     3B2     0.970452
       3B1     0.970452     7A1     0.972578     1A2     0.972578
       8A1     1.005745     9A1     1.337135     4B2     1.432767
       4B1     1.432767    10A1     2.147390     5B2     2.227666
       5B1     2.227666    11A1     2.491808    12A1     2.822507
      13A1     2.992018     2A2     2.992018     6B2     3.007430
       6B1     3.007430     7B1     3.115834     7B2     3.115834
      14A1     3.212997     3A2     3.212997     8B2     3.460288
       8B1     3.460288    15A1     3.470177    16A1     4.473634
      17A1     4.669011     4A2     4.669011     9B1     4.679432
       9B2     4.679432    18A1     6.041369    10B1     6.580956
      10B2     6.580956    19A1     8.341505    20A1    17.431305

    Beta Occupied:

       1A1    -9.806429     2A1    -0.368041     3A1     0.067428

    Beta Virtual:

       1B2     0.248889     1B1     0.248889     4A1     0.302700
       5A1     0.547794     2B2     0.641630     2B1     0.641630
       6A1     0.756598     3B1     1.009338     3B2     1.009338
       7A1     1.030428     1A2     1.048940     8A1     1.048940
       9A1     1.351621     4B2     1.452202     4B1     1.452202
      10A1     2.187291     5B2     2.304333     5B1     2.304333
      11A1     2.515216    12A1     2.883798     2A2     3.051274
      13A1     3.051274     6B2     3.102379     6B1     3.102379
       7B1     3.163824     7B2     3.163824     3A2     3.317709
      14A1     3.317709     8B2     3.498156     8B1     3.498156
      15A1     3.499924    16A1     4.497781     9B1     4.708009
       9B2     4.708009     4A2     4.715366    17A1     4.715366
      18A1     6.070125    10B1     6.615760    10B2     6.615760
      19A1     8.349886    20A1    17.458144

    Final Occupation by Irrep:
             A1    A2    B1    B2
    DOCC [     3,    0,    0,    0 ]
    SOCC [     0,    0,    1,    1 ]
    NA   [     3,    0,    1,    1 ]
    NB   [     3,    0,    0,    0 ]

  @DF-UKS Final Energy:   -38.02120969295189

   => Energetics <=

    Nuclear Repulsion Energy =              5.3623586206768419
    One-Electron Energy =                 -63.0047583036703784
    Two-Electron Energy =                  24.6161581390699027
    DFT Exchange-Correlation Energy =      -4.9949681490282574
    Empirical Dispersion Energy =           0.0000000000000000
    VV10 Nonlocal Energy =                  0.0000000000000000
    Total Energy =                        -38.0212096929518921

  UHF NO Occupations:
  HONO-2 :    3 A1 1.9975021
  HONO-1 :    1 B2 1.0000000
  HONO-0 :    1 B1 1.0000000
  LUNO+0 :    4 A1 0.0024979
  LUNO+1 :    5 A1 0.0001729
  LUNO+2 :    6 A1 0.0000012
  LUNO+3 :    7 A1 0.0000000

Computation Completed

Properties will be evaluated at   0.000000,   0.000000,   0.000000 [a0]

Properties computed using the B3LYP density matrix

 Multipole Moments:

 ------------------------------------------------------------------------------------
     Multipole            Electronic (a.u.)      Nuclear  (a.u.)        Total (a.u.)
 ------------------------------------------------------------------------------------

 L = 1.  Multiply by 2.5417464519 to convert [e a0] to [Debye]
 Dipole X            :          0.0000000            0.0000000            0.0000000
 Dipole Y            :          0.0000000            0.0000000            0.0000000
 Dipole Z            :          0.4649778            0.5120711            0.9770488
 Magnitude           :                                                    0.9770488

 L = 2.  Multiply by 1.3450342976 to convert [e a0^2] to [Debye ang]
 Quadrupole XX       :         -7.6440274            0.0000000           -7.6440274
 Quadrupole XY       :          0.0000000            0.0000000            0.0000000
 Quadrupole XZ       :          0.0000000            0.0000000            0.0000000
 Quadrupole YY       :         -7.6440274            0.0000000           -7.6440274
 Quadrupole YZ       :          0.0000000            0.0000000            0.0000000
 Quadrupole ZZ       :         -8.7468274            1.1105689           -7.6362584
 Traceless XX        :          0.3676000           -0.3701896           -0.0025896
 Traceless YY        :          0.3676000           -0.3701896           -0.0025896
 Traceless ZZ        :         -0.7352000            0.7403793            0.0051793

 ------------------------------------------------------------------------------------
  ==> Computing MBIS Charges <==

  Electron Count from Grid (Expected Number):  8.00000 ( 8.00000)
  Difference: -0.00000

  MBIS Charges: (a.u.)
   Center  Symbol  Z      Pop.       Charge
      1       C    6    7.164886   -1.164886
      2       H    1    0.835114    0.164886

  MBIS Dipoles: [e a0]
   Center  Symbol  Z        X           Y           Z
      1       C    6    0.000000    0.000000    0.686100
      2       H    1   -0.000000    0.000000    0.019765

  MBIS Quadrupoles: [e a0^2]
   Center  Symbol  Z      XX        XY        XZ        YY        YZ        ZZ
      1       C    6   -7.4255    0.0000    0.0000   -7.4255    0.0000   -7.5142
      2       H    1   -0.2185   -0.0000    0.0000   -0.2185    0.0000   -0.2108

  MBIS Octupoles: [e a0^3]
   Center  Symbol  Z      XXX       XXY       XXZ       XYY       XYZ       XZZ       YYY       YYZ       YZZ       ZZZ
      1       C    6    0.0000   -0.0000    1.6050   -0.0000   -0.0000   -0.0000   -0.0000    1.6050   -0.0000    4.7261
      2       H    1   -0.0000    0.0000    0.0060   -0.0000    0.0000    0.0000    0.0000    0.0060   -0.0000    0.0144

  MBIS Radial Moments:
   Center  Symbol  Z      [a0^2]      [a0^3]      [a0^4]
      1       C    6   22.365193   63.153071   208.593299
      2       H    1    0.647893    0.805597    1.205046

  MBIS Valence Widths: [a0]
   Center  Symbol  Z     Width
      1       C    6    0.589095
      2       H    1    0.257810

*** tstop() called on Mac.lan at Sun Aug 10 17:35:24 2025
Module time:
	user time   =       3.21 seconds =       0.05 minutes
	system time =       2.40 seconds =       0.04 minutes
	total time  =          0 seconds =       0.00 minutes
Total time:
	user time   =      14.98 seconds =       0.25 minutes
	system time =       3.30 seconds =       0.06 minutes
	total time  =          1 seconds =       0.02 minutes

    Psi4 stopped on: Sunday, 10 August 2025 05:35PM
    Psi4 wall time for execution: 0:00:01.78

*** Psi4 exiting successfully. Buy a developer a beer!
