                               Psi4 1.9.1 release

  ==> Input File <==

--------------------------------------------------------------------------
molecule {
-1 2
O           0.000000           0.000000           0.000000
C           0.000000           0.000000           1.805128
}

set {
basis              cc-pvtz
reference          uks
maxiter            500
DAMPING_PERCENTAGE 1
E_CONVERGENCE      1.0E-8
D_CONVERGENCE      1.0E-8
DIIS_MAX_VECS      400
MBIS_MAXITER       8000
guess              read
}

E, wfn = energy('b3lyp', restart_file='last_wfn', return_wfn=True)
properties('b3lyp','MBIS_CHARGES', wfn=wfn)
wfn.to_file('last_wfn')
--------------------------------------------------------------------------

    Molecular point group: c2v
  Charge       = -1
  Multiplicity = 2
  Basis Set: CC-PVTZ
    Blend: CC-PVTZ
  Basis Set: (CC-PVTZ AUX)
    Blend: CC-PVTZ-JKFIT
  @DF-UKS Final Energy:  -113.13942343820183
    Total Energy =                       -113.1394234382018311
 Dipole X            :          0.0000000            0.0000000            0.0000000
 Dipole Y            :          0.0000000            0.0000000            0.0000000
 Dipole Z            :         -0.1371224           -0.0037179           -0.1408404
 Magnitude           :                                                    0.1408404
    Molecular point group: c2v

    Geometry (in Angstrom), charge = -1, multiplicity = 2:

       Center              X                  Y                   Z               Mass
    ------------   -----------------  -----------------  -----------------  -----------------
         O            0.000000000000     0.000000000000    -0.773766817808    15.994914619570
         C            0.000000000000     0.000000000000     1.031361182192    12.000000000000

  Charge       = -1
  Multiplicity = 2
  Basis Set: CC-PVTZ
    Blend: CC-PVTZ
  Basis Set: (CC-PVTZ AUX)
    Blend: CC-PVTZ-JKFIT

    Orbital Energies [Eh]
    ---------------------

    Alpha Occupied:

       1A1   -18.847436     2A1   -10.012439     3A1    -0.579457
       4A1    -0.281781     5A1    -0.033555     1B1    -0.030905
       1B2     0.004600     2B1     0.058481

    Alpha Virtual:

       2B2     0.147971     6A1     0.270506     7A1     0.535834
       3B1     0.536599     3B2     0.544408     8A1     0.611519
       9A1     0.840238     4B1     0.874475     4B2     0.884726
       1A2     0.916904    10A1     0.918104     5B1     1.019870
       5B2     1.019970    11A1     1.194408    12A1     1.503601
       2A2     1.793749    13A1     1.795039     6B1     1.889910
       6B2     1.892427    14A1     1.977505     7B1     2.220996
       7B2     2.230438    15A1     2.606359     8B1     2.923106
       8B2     2.923376     3A2     2.944410    16A1     2.945684
       9B2     3.052529     9B1     3.052558    17A1     3.104830
       4A2     3.182393    18A1     3.185375    10B1     3.329715
      10B2     3.334878    19A1     3.455371    11B1     3.945207
      11B2     3.961824    20A1     4.033869    21A1     4.572730
      12B1     5.455848    12B2     5.456110     5A2     5.458725
      22A1     5.460008    13B1     5.566709    13B2     5.567278
      23A1     5.756563     6A2     6.524022    24A1     6.527380
      14B1     6.694235    14B2     6.706313    25A1     7.033211
      26A1     8.398478

    Beta Occupied:

       1A1   -18.857008     2A1    -9.992893     3A1    -0.604355
       4A1    -0.219537     1B2    -0.042288     5A1    -0.032182
       1B1    -0.003409

    Beta Virtual:

       2B2     0.176856     2B1     0.203138     6A1     0.284952
       7A1     0.547834     3B2     0.576968     3B1     0.594642
       8A1     0.639835     9A1     0.838987     4B2     0.863149
       4B1     0.885553     1A2     0.970144    10A1     0.970201
       5B2     1.029185     5B1     1.045693    11A1     1.206507
      12A1     1.497890     2A2     1.777939    13A1     1.778098
       6B2     1.878745     6B1     1.901025    14A1     1.980621
       7B2     2.270001     7B1     2.294794    15A1     2.628827
      16A1     2.994169     8B2     2.994375     3A2     2.994427
       8B1     2.994474     9B2     3.080147     9B1     3.101255
      17A1     3.122482    18A1     3.273625     4A2     3.274114
      10B2     3.364597    10B1     3.388170    19A1     3.482788
      11B2     3.913891    11B1     3.949875    20A1     4.063858
      21A1     4.571544    12B2     5.433340    12B1     5.433501
      22A1     5.440601     5A2     5.441048    13B2     5.538431
      13B1     5.565903    23A1     5.744121    24A1     6.494518
       6A2     6.494820    14B2     6.660318    14B1     6.694139
      25A1     7.018089    26A1     8.380401

    Final Occupation by Irrep:
             A1    A2    B1    B2
    DOCC [     5,    0,    1,    1 ]
    SOCC [     0,    0,    1,    0 ]
    NA   [     5,    0,    2,    1 ]
    NB   [     5,    0,    1,    1 ]

  @DF-UKS Final Energy:  -113.13942343747969

   => Energetics <=

    Nuclear Repulsion Energy =             14.0713047009187147
    One-Electron Energy =                -186.8334319175197606
    Two-Electron Energy =                  70.8933090385379785
    DFT Exchange-Correlation Energy =     -11.2706052594166231
    Empirical Dispersion Energy =           0.0000000000000000
    VV10 Nonlocal Energy =                  0.0000000000000000
    Total Energy =                       -113.1394234374796923

  UHF NO Occupations:
  HONO-2 :    5 A1 1.9960329
  HONO-1 :    1 B2 1.8750276
  HONO-0 :    2 B1 1.0000000
  LUNO+0 :    2 B2 0.1249724
  LUNO+1 :    6 A1 0.0039671
  LUNO+2 :    7 A1 0.0006772
  LUNO+3 :    3 B1 0.0004528

Computation Completed

Properties will be evaluated at   0.000000,   0.000000,   0.000000 [a0]

Properties computed using the B3LYP density matrix

 Multipole Moments:

 ------------------------------------------------------------------------------------
     Multipole            Electronic (a.u.)      Nuclear  (a.u.)        Total (a.u.)
 ------------------------------------------------------------------------------------

 L = 1.  Multiply by 2.5417464519 to convert [e a0] to [Debye]
 Dipole X            :          0.0000000            0.0000000            0.0000000
 Dipole Y            :          0.0000000            0.0000000            0.0000000
 Dipole Z            :         -0.1371227           -0.0037179           -0.1408406
 Magnitude           :                                                    0.1408406

 L = 2.  Multiply by 1.3450342976 to convert [e a0^2] to [Debye ang]
 Quadrupole XX       :        -11.2010094            0.0000000          -11.2010094
 Quadrupole XY       :          0.0000000            0.0000000            0.0000000
 Quadrupole XZ       :          0.0000000            0.0000000            0.0000000
 Quadrupole YY       :        -10.0625512            0.0000000          -10.0625512
 Quadrupole YZ       :          0.0000000            0.0000000            0.0000000
 Quadrupole ZZ       :        -54.3334158           39.8957793          -14.4376365
 Traceless XX        :         13.9979827          -13.2985931            0.6993896
 Traceless YY        :         15.1364409          -13.2985931            1.8378478
 Traceless ZZ        :        -29.1344237           26.5971862           -2.5372375

 ------------------------------------------------------------------------------------
  ==> Computing MBIS Charges <==

  Electron Count from Grid (Expected Number): 15.00000 (15.00000)
  Difference:  0.00000

  MBIS Charges: (a.u.)
   Center  Symbol  Z      Pop.       Charge
      1       O    8    8.590023   -0.590023
      2       C    6    6.409977   -0.409977

  MBIS Dipoles: [e a0]
   Center  Symbol  Z        X           Y           Z
      1       O    8   -0.000000   -0.000000    0.027567
      2       C    6   -0.000000    0.000000   -0.232103

  MBIS Quadrupoles: [e a0^2]
   Center  Symbol  Z      XX        XY        XZ        YY        YZ        ZZ
      1       O    8   -4.9198   -0.0000    0.0000   -4.5702    0.0000   -4.6088
      2       C    6   -6.2812    0.0000    0.0000   -5.4924    0.0000   -6.0246

  MBIS Octupoles: [e a0^3]
   Center  Symbol  Z      XXX       XXY       XXZ       XYY       XYZ       XZZ       YYY       YYZ       YZZ       ZZZ
      1       O    8    0.0000   -0.0000    0.0221   -0.0000    0.0000   -0.0000   -0.0000   -0.0551   -0.0000   -0.1677
      2       C    6   -0.0000   -0.0000   -0.2999   -0.0000    0.0000    0.0000    0.0000   -0.0358    0.0000    0.1528

  MBIS Radial Moments:
   Center  Symbol  Z      [a0^2]      [a0^3]      [a0^4]
      1       O    8   14.098786   28.533981   68.826789
      2       C    6   17.798235   47.946032   152.206890

  MBIS Valence Widths: [a0]
   Center  Symbol  Z     Width
      1       O    8    0.412985
      2       C    6    0.566764

*** tstop() called on Mac.lan at Sun Aug 10 17:44:01 2025
Module time:
	user time   =       3.69 seconds =       0.06 minutes
	system time =       1.99 seconds =       0.03 minutes
	total time  =          0 seconds =       0.00 minutes
Total time:
	user time   =      23.20 seconds =       0.39 minutes
	system time =       4.48 seconds =       0.07 minutes
	total time  =          2 seconds =       0.03 minutes

    Psi4 stopped on: Sunday, 10 August 2025 05:44PM
    Psi4 wall time for execution: 0:00:02.66

*** Psi4 exiting successfully. Buy a developer a beer!
