                               Psi4 1.9.1 release

  ==> Input File <==

--------------------------------------------------------------------------
molecule {
-1 1
O           0.000000           0.000000           0.000000
H           0.000000           0.000000           0.818466
}

set {
basis              cc-pvtz
reference          uks
maxiter            500
DAMPING_PERCENTAGE 1
E_CONVERGENCE      1.0E-8
D_CONVERGENCE      1.0E-8
DIIS_MAX_VECS      400
MBIS_MAXITER       8000
guess              read
}

E, wfn = energy('b3lyp', restart_file='last_wfn', return_wfn=True)
properties('b3lyp','MBIS_CHARGES', wfn=wfn)
wfn.to_file('last_wfn')
--------------------------------------------------------------------------

    Molecular point group: c2v
  Charge       = -1
  Multiplicity = 1
  Basis Set: CC-PVTZ
    Blend: CC-PVTZ
  Basis Set: (CC-PVTZ AUX)
    Blend: CC-PVTZ-JKFIT
  @DF-UKS Final Energy:   -75.76165592141876
    Total Energy =                        -75.7616559214187646
 Dipole X            :          0.0000000            0.0000000            0.0000000
 Dipole Y            :          0.0000000            0.0000000            0.0000000
 Dipole Z            :         -0.1779171            0.7215734            0.5436563
 Magnitude           :                                                    0.5436563
    Molecular point group: c2v

    Geometry (in Angstrom), charge = -1, multiplicity = 1:

       Center              X                  Y                   Z               Mass
    ------------   -----------------  -----------------  -----------------  -----------------
         O            0.000000000000     0.000000000000    -0.048513977143    15.994914619570
         H            0.000000000000     0.000000000000     0.769952022857     1.007825032230

  Charge       = -1
  Multiplicity = 1
  Basis Set: CC-PVTZ
    Blend: CC-PVTZ
  Basis Set: (CC-PVTZ AUX)
    Blend: CC-PVTZ-JKFIT

    Orbital Energies [Eh]
    ---------------------

    Alpha Occupied:

       1A1   -18.642287     2A1    -0.559089     3A1    -0.027133
       1B2     0.121331     1B1     0.121331

    Alpha Virtual:

       4A1     0.326314     5A1     0.804447     6A1     0.868016
       2B1     0.944723     2B2     0.944723     3B2     1.092009
       3B1     1.092009     7A1     1.211583     8A1     1.854118
       9A1     1.890426     1A2     1.890426     4B2     2.244520
       4B1     2.244520    10A1     2.245037    11A1     2.983602
       2A2     3.675582    12A1     3.675582     5B2     3.838992
       5B1     3.838992     6B2     4.081857     6B1     4.081857
      13A1     4.244283     7B2     4.646948     7B1     4.646948
      14A1     4.963312    15A1     5.540269     8B2     5.591553
       8B1     5.591553     3A2     6.053121    16A1     6.053121
      17A1     6.680424     4A2     6.680424     9B1     6.822076
       9B2     6.822076    18A1     7.313639    10B2     7.681141
      10B1     7.681141    19A1     7.763662    20A1    12.216520

    Beta Occupied:

       1A1   -18.642287     2A1    -0.559089     3A1    -0.027133
       1B2     0.121331     1B1     0.121331

    Beta Virtual:

       4A1     0.326314     5A1     0.804447     6A1     0.868016
       2B1     0.944723     2B2     0.944723     3B2     1.092009
       3B1     1.092009     7A1     1.211583     8A1     1.854118
       9A1     1.890426     1A2     1.890426     4B2     2.244520
       4B1     2.244520    10A1     2.245037    11A1     2.983602
       2A2     3.675582    12A1     3.675582     5B2     3.838992
       5B1     3.838992     6B2     4.081857     6B1     4.081857
      13A1     4.244283     7B2     4.646948     7B1     4.646948
      14A1     4.963312    15A1     5.540269     8B2     5.591553
       8B1     5.591553     3A2     6.053121    16A1     6.053121
      17A1     6.680424     4A2     6.680424     9B1     6.822076
       9B2     6.822076    18A1     7.313639    10B2     7.681141
      10B1     7.681141    19A1     7.763662    20A1    12.216520

    Final Occupation by Irrep:
             A1    A2    B1    B2
    DOCC [     3,    0,    1,    1 ]
    SOCC [     0,    0,    0,    0 ]
    NA   [     3,    0,    1,    1 ]
    NB   [     3,    0,    1,    1 ]

  @DF-UKS Final Energy:   -75.76165592159806

   => Energetics <=

    Nuclear Repulsion Energy =              5.1723806307897950
    One-Electron Energy =                -118.4853052234622766
    Two-Electron Energy =                  45.0875416681225190
    DFT Exchange-Correlation Energy =      -7.5362729970480817
    Empirical Dispersion Energy =           0.0000000000000000
    VV10 Nonlocal Energy =                  0.0000000000000000
    Total Energy =                        -75.7616559215980487

  UHF NO Occupations:
  HONO-2 :    2 A1 2.0000000
  HONO-1 :    1 B2 2.0000000
  HONO-0 :    3 A1 2.0000000
  LUNO+0 :    4 A1 0.0000000
  LUNO+1 :    5 A1 0.0000000
  LUNO+2 :    6 A1 0.0000000
  LUNO+3 :    7 A1 0.0000000

Computation Completed

Properties will be evaluated at   0.000000,   0.000000,   0.000000 [a0]

Properties computed using the B3LYP density matrix

 Multipole Moments:

 ------------------------------------------------------------------------------------
     Multipole            Electronic (a.u.)      Nuclear  (a.u.)        Total (a.u.)
 ------------------------------------------------------------------------------------

 L = 1.  Multiply by 2.5417464519 to convert [e a0] to [Debye]
 Dipole X            :          0.0000000            0.0000000            0.0000000
 Dipole Y            :          0.0000000            0.0000000            0.0000000
 Dipole Z            :         -0.1779171            0.7215734            0.5436563
 Magnitude           :                                                    0.5436563

 L = 2.  Multiply by 1.3450342976 to convert [e a0^2] to [Debye ang]
 Quadrupole XX       :         -6.1650868            0.0000000           -6.1650868
 Quadrupole XY       :          0.0000000            0.0000000            0.0000000
 Quadrupole XZ       :          0.0000000            0.0000000            0.0000000
 Quadrupole YY       :         -6.1650868            0.0000000           -6.1650868
 Quadrupole YZ       :          0.0000000            0.0000000            0.0000000
 Quadrupole ZZ       :         -7.1976315            2.1842595           -5.0133720
 Traceless XX        :          0.3441816           -0.7280865           -0.3839049
 Traceless YY        :          0.3441816           -0.7280865           -0.3839049
 Traceless ZZ        :         -0.6883632            1.4561730            0.7678099

 ------------------------------------------------------------------------------------
  ==> Computing MBIS Charges <==

  Electron Count from Grid (Expected Number): 10.00000 (10.00000)
  Difference: -0.00000

  MBIS Charges: (a.u.)
   Center  Symbol  Z      Pop.       Charge
      1       O    8    9.368024   -1.368024
      2       H    1    0.631976    0.368024

  MBIS Dipoles: [e a0]
   Center  Symbol  Z        X           Y           Z
      1       O    8   -0.000000   -0.000000   -0.129001
      2       H    1    0.000000    0.000000    0.011765

  MBIS Quadrupoles: [e a0^2]
   Center  Symbol  Z      XX        XY        XZ        YY        YZ        ZZ
      1       O    8   -5.8595    0.0000   -0.0000   -5.8595   -0.0000   -5.5318
      2       H    1   -0.3056    0.0000   -0.0000   -0.3056   -0.0000   -0.3070

  MBIS Octupoles: [e a0^3]
   Center  Symbol  Z      XXX       XXY       XXZ       XYY       XYZ       XZZ       YYY       YYZ       YZZ       ZZZ
      1       O    8   -0.0000   -0.0000   -0.1086   -0.0000    0.0000   -0.0000   -0.0000   -0.1086    0.0000   -0.7765
      2       H    1   -0.0000   -0.0000    0.0019    0.0000   -0.0000   -0.0000   -0.0000    0.0019   -0.0000   -0.0043

  MBIS Radial Moments:
   Center  Symbol  Z      [a0^2]      [a0^3]      [a0^4]
      1       O    8   17.250802   36.513683   91.162295
      2       H    1    0.918249    1.601902    3.325617

  MBIS Valence Widths: [a0]
   Center  Symbol  Z     Width
      1       O    8    0.433746
      2       H    1    0.346924

*** tstop() called on Mac.lan at Sun Aug 10 17:37:01 2025
Module time:
	user time   =       3.15 seconds =       0.05 minutes
	system time =       3.29 seconds =       0.05 minutes
	total time  =          0 seconds =       0.00 minutes
Total time:
	user time   =      11.86 seconds =       0.20 minutes
	system time =       5.59 seconds =       0.09 minutes
	total time  =          1 seconds =       0.02 minutes

    Psi4 stopped on: Sunday, 10 August 2025 05:37PM
    Psi4 wall time for execution: 0:00:01.70

*** Psi4 exiting successfully. Buy a developer a beer!
