                               Psi4 1.9.1 release

  ==> Input File <==

--------------------------------------------------------------------------
molecule {
-1 2
H           0.000000           0.000000           0.000000
H           0.000000           0.000000           0.489227
}

set {
basis              cc-pvtz
reference          uks
maxiter            500
DAMPING_PERCENTAGE 1
E_CONVERGENCE      1.0E-8
D_CONVERGENCE      1.0E-8
DIIS_MAX_VECS      400
MBIS_MAXITER       8000
guess              read
}

E, wfn = energy('b3lyp', restart_file='last_wfn', return_wfn=True)
properties('b3lyp','MBIS_CHARGES', wfn=wfn)
wfn.to_file('last_wfn')
--------------------------------------------------------------------------

    Molecular point group: d2h
  Charge       = -1
  Multiplicity = 2
  Basis Set: CC-PVTZ
    Blend: CC-PVTZ
  Basis Set: (CC-PVTZ AUX)
    Blend: CC-PVTZ-JKFIT
  @DF-UKS Final Energy:    -0.94148746839838
    Total Energy =                         -0.9414874683983807
 Dipole X            :          0.0000000            0.0000000            0.0000000
 Dipole Y            :          0.0000000            0.0000000            0.0000000
 Dipole Z            :          0.0000000            0.0000000            0.0000000
 Magnitude           :                                                    0.0000000
    Molecular point group: d2h

    Geometry (in Angstrom), charge = -1, multiplicity = 2:

       Center              X                  Y                   Z               Mass
    ------------   -----------------  -----------------  -----------------  -----------------
         H            0.000000000000     0.000000000000    -0.244613500000     1.007825032230
         H            0.000000000000     0.000000000000     0.244613500000     1.007825032230

  Charge       = -1
  Multiplicity = 2
  Basis Set: CC-PVTZ
    Blend: CC-PVTZ
  Basis Set: (CC-PVTZ AUX)
    Blend: CC-PVTZ-JKFIT

    Orbital Energies [Eh]
    ---------------------

    Alpha Occupied:

       1Ag    -0.213135     1B1u    0.231023

    Alpha Virtual:

       2Ag     0.385869     2B1u    0.781016     1B3u    0.820297
       1B2u    0.820297     3Ag     1.224744     1B3g    1.235313
       1B2g    1.235313     3B1u    1.672993     4Ag     2.183475
       4B1u    2.934183     1B1g    3.237647     5Ag     3.237647
       2B3u    3.459639     2B2u    3.459639     2B3g    3.633016
       2B2g    3.633016     6Ag     3.727176     5B1u    4.339329
       1Au     4.339329     3B2u    4.363667     3B3u    4.363667
       6B1u    5.124983     7Ag     6.697086     3B3g    6.883296
       3B2g    6.883296     7B1u    9.784107

    Beta Occupied:

       1Ag    -0.206738

    Beta Virtual:

       1B1u    0.327245     2Ag     0.407487     2B1u    0.803276
       1B3u    0.819237     1B2u    0.819237     1B3g    1.247264
       1B2g    1.247264     3Ag     1.259590     3B1u    1.682365
       4Ag     2.187753     4B1u    2.954813     1B1g    3.237187
       5Ag     3.237187     2B3u    3.457775     2B2u    3.457775
       2B3g    3.646339     2B2g    3.646339     6Ag     3.747752
       1Au     4.344241     5B1u    4.344241     3B2u    4.374338
       3B3u    4.374338     6B1u    5.136015     7Ag     6.704934
       3B3g    6.890547     3B2g    6.890547     7B1u    9.792519

    Final Occupation by Irrep:
             Ag   B1g   B2g   B3g    Au   B1u   B2u   B3u
    DOCC [     1,    0,    0,    0,    0,    0,    0,    0 ]
    SOCC [     0,    0,    0,    0,    0,    1,    0,    0 ]
    NA   [     1,    0,    0,    0,    0,    1,    0,    0 ]
    NB   [     1,    0,    0,    0,    0,    0,    0,    0 ]

  @DF-UKS Final Energy:    -0.94148746829078

   => Energetics <=

    Nuclear Repulsion Energy =              1.0816598647866942
    One-Electron Energy =                  -3.2838841307477669
    Two-Electron Energy =                   2.0537398717522026
    DFT Exchange-Correlation Energy =      -0.7930030740819120
    Empirical Dispersion Energy =           0.0000000000000000
    VV10 Nonlocal Energy =                  0.0000000000000000
    Total Energy =                         -0.9414874682907822

  UHF NO Occupations:
  HONO-1 :    1 Ag 1.9998313
  HONO-0 :    1B1u 1.0000000
  LUNO+0 :    2 Ag 0.0001687
  LUNO+1 :    3 Ag 0.0000000
  LUNO+2 :    4 Ag 0.0000000
  LUNO+3 :    5 Ag 0.0000000

Computation Completed

Properties will be evaluated at   0.000000,   0.000000,   0.000000 [a0]

Properties computed using the B3LYP density matrix

 Multipole Moments:

 ------------------------------------------------------------------------------------
     Multipole            Electronic (a.u.)      Nuclear  (a.u.)        Total (a.u.)
 ------------------------------------------------------------------------------------

 L = 1.  Multiply by 2.5417464519 to convert [e a0] to [Debye]
 Dipole X            :          0.0000000            0.0000000            0.0000000
 Dipole Y            :          0.0000000            0.0000000            0.0000000
 Dipole Z            :          0.0000000            0.0000000            0.0000000
 Magnitude           :                                                    0.0000000

 L = 2.  Multiply by 1.3450342976 to convert [e a0^2] to [Debye ang]
 Quadrupole XX       :         -4.1028090            0.0000000           -4.1028090
 Quadrupole XY       :          0.0000000            0.0000000            0.0000000
 Quadrupole XZ       :          0.0000000            0.0000000            0.0000000
 Quadrupole YY       :         -4.1028090            0.0000000           -4.1028090
 Quadrupole YZ       :          0.0000000            0.0000000            0.0000000
 Quadrupole ZZ       :        -10.2597027            0.4273548           -9.8323480
 Traceless XX        :          2.0522979           -0.1424516            1.9098463
 Traceless YY        :          2.0522979           -0.1424516            1.9098463
 Traceless ZZ        :         -4.1045959            0.2849032           -3.8196927

 ------------------------------------------------------------------------------------
  ==> Computing MBIS Charges <==

  Electron Count from Grid (Expected Number):  3.00000 ( 3.00000)
  Difference: -0.00000

  MBIS Charges: (a.u.)
   Center  Symbol  Z      Pop.       Charge
      1       H    1    1.500000   -0.500000
      2       H    1    1.500000   -0.500000

  MBIS Dipoles: [e a0]
   Center  Symbol  Z        X           Y           Z
      1       H    1   -0.000000   -0.000000    0.296450
      2       H    1    0.000000   -0.000000   -0.296450

  MBIS Quadrupoles: [e a0^2]
   Center  Symbol  Z      XX        XY        XZ        YY        YZ        ZZ
      1       H    1   -2.0514    0.0000   -0.0000   -2.0514   -0.0000   -4.5353
      2       H    1   -2.0514    0.0000   -0.0000   -2.0514   -0.0000   -4.5353

  MBIS Octupoles: [e a0^3]
   Center  Symbol  Z      XXX       XXY       XXZ       XYY       XYZ       XZZ       YYY       YYZ       YZZ       ZZZ
      1       H    1    0.0000    0.0000    0.8866   -0.0000   -0.0000   -0.0000   -0.0000    0.8866    0.0000    2.2347
      2       H    1   -0.0000   -0.0000   -0.8866    0.0000    0.0000    0.0000    0.0000   -0.8866    0.0000   -2.2347

  MBIS Radial Moments:
   Center  Symbol  Z      [a0^2]      [a0^3]      [a0^4]
      1       H    1    8.638075   31.492636   130.811418
      2       H    1    8.638075   31.492636   130.811418

  MBIS Valence Widths: [a0]
   Center  Symbol  Z     Width
      1       H    1    0.658042
      2       H    1    0.658042

*** tstop() called on Mac.lan at Sun Aug 10 17:26:05 2025
Module time:
	user time   =       0.83 seconds =       0.01 minutes
	system time =       1.02 seconds =       0.02 minutes
	total time  =          1 seconds =       0.02 minutes
Total time:
	user time   =       1.85 seconds =       0.03 minutes
	system time =       3.20 seconds =       0.05 minutes
	total time  =          1 seconds =       0.02 minutes

    Psi4 stopped on: Sunday, 10 August 2025 05:26PM
    Psi4 wall time for execution: 0:00:00.81

*** Psi4 exiting successfully. Buy a developer a beer!
