                               Psi4 1.9.1 release

  ==> Input File <==

--------------------------------------------------------------------------
molecule {
-1 2
O           0.000000           0.000000           0.000000
O           0.000000           0.000000           1.425506
}

set {
basis              cc-pvtz
reference          uks
maxiter            500
DAMPING_PERCENTAGE 1
E_CONVERGENCE      1.0E-8
D_CONVERGENCE      1.0E-8
DIIS_MAX_VECS      400
MBIS_MAXITER       8000
guess              read
}

E, wfn = energy('b3lyp', restart_file='last_wfn', return_wfn=True)
properties('b3lyp','MBIS_CHARGES', wfn=wfn)
wfn.to_file('last_wfn')
--------------------------------------------------------------------------

    Molecular point group: d2h
  Charge       = -1
  Multiplicity = 2
  Basis Set: CC-PVTZ
    Blend: CC-PVTZ
  Basis Set: (CC-PVTZ AUX)
    Blend: CC-PVTZ-JKFIT
  @DF-UKS Final Energy:  -150.37445094418746
    Total Energy =                       -150.3744509441874300
 Dipole X            :          0.0000000            0.0000000            0.0000000
 Dipole Y            :          0.0000000            0.0000000            0.0000000
 Dipole Z            :          0.0000000            0.0000000            0.0000000
 Magnitude           :                                                    0.0000000
    Molecular point group: d2h

    Geometry (in Angstrom), charge = -1, multiplicity = 2:

       Center              X                  Y                   Z               Mass
    ------------   -----------------  -----------------  -----------------  -----------------
         O            0.000000000000     0.000000000000    -0.712753000000    15.994914619570
         O            0.000000000000     0.000000000000     0.712753000000    15.994914619570

  Charge       = -1
  Multiplicity = 2
  Basis Set: CC-PVTZ
    Blend: CC-PVTZ
  Basis Set: (CC-PVTZ AUX)
    Blend: CC-PVTZ-JKFIT

    Orbital Energies [Eh]
    ---------------------

    Alpha Occupied:

       1Ag   -18.843742     1B1u  -18.843682     2Ag    -0.741809
       2B1u   -0.472660     3Ag    -0.110682     1B2u   -0.107002
       1B3u   -0.068518     1B3g    0.045301     1B2g    0.087599

    Alpha Virtual:

       3B1u    0.376497     4B1u    0.787365     2B2u    0.836725
       2B3u    0.859709     4Ag     0.889261     2B3g    0.921832
       2B2g    0.942317     5Ag     1.045096     5B1u    1.515477
       3B2u    1.580500     3B3u    1.603879     1B1g    1.653393
       6Ag     1.653444     1Au     1.915891     6B1u    1.916186
       7Ag     2.181950     3B3g    2.366160     3B2g    2.391907
       7B1u    2.573859     4B2u    3.782273     8Ag     3.808925
       4B3u    3.816759     4B3g    3.983672     4B2g    4.020771
       8B1u    4.745991     5B2u    5.018068     5B3u    5.047128
       9Ag     5.126084     2B1g    5.166621    10Ag     5.173714
       6B2u    5.401179     6B3u    5.401220     5B3g    5.478018
       5B2g    5.478034     2Au     5.719619     9B1u    5.719782
       6B3g    6.201676     6B2g    6.232410    11Ag     6.438742
       3B1g    6.438857    10B1u    6.489903     7B2u    6.555688
       7B3u    6.590026     3Au     6.596688    11B1u    6.597596
      12Ag     6.963398     7B3g    7.174139     7B2g    7.205763
      12B1u    7.229984    13Ag     7.842956    13B1u    9.339834

    Beta Occupied:

       1Ag   -18.829536     1B1u  -18.829438     2Ag    -0.710033
       2B1u   -0.429466     3Ag    -0.095504     1B3u   -0.056768
       1B2u   -0.020133     1B2g    0.102269

    Beta Virtual:

       1B3g    0.210088     3B1u    0.394582     4B1u    0.795394
       2B3u    0.865390     2B2u    0.875295     4Ag     0.896489
       2B2g    0.948022     2B3g    0.960792     5Ag     1.055190
       5B1u    1.532639     3B2u    1.603914     3B3u    1.605229
       1B1g    1.675573     6Ag     1.676808     1Au     1.944394
       6B1u    1.945872     7Ag     2.197026     3B2g    2.395523
       3B3g    2.397285     7B1u    2.583907     8Ag     3.818144
       4B3u    3.827088     4B2u    3.843046     4B2g    4.032297
       4B3g    4.047285     8B1u    4.762633     5B2u    5.049376
       5B3u    5.051520     9Ag     5.150499     2B1g    5.188731
      10Ag     5.190038     6B3u    5.436213     6B2u    5.436503
       5B2g    5.513946     5B3g    5.514239     2Au     5.744340
       9B1u    5.745785     6B2g    6.238081     6B3g    6.242836
       3B1g    6.489745    11Ag     6.493319    10B1u    6.506494
       7B3u    6.597059     7B2u    6.608166     3Au     6.646428
      11B1u    6.649952    12Ag     6.975723     7B2g    7.210686
       7B3g    7.216179    12B1u    7.250153    13Ag     7.872394
      13B1u    9.359062

    Final Occupation by Irrep:
             Ag   B1g   B2g   B3g    Au   B1u   B2u   B3u
    DOCC [     3,    0,    1,    0,    0,    2,    1,    1 ]
    SOCC [     0,    0,    0,    1,    0,    0,    0,    0 ]
    NA   [     3,    0,    1,    1,    0,    2,    1,    1 ]
    NB   [     3,    0,    1,    0,    0,    2,    1,    1 ]

  @DF-UKS Final Energy:  -150.37445094396750

   => Energetics <=

    Nuclear Repulsion Energy =             23.7581192102172842
    One-Electron Energy =                -260.2888819523018356
    Two-Electron Energy =                 100.1471269080429067
    DFT Exchange-Correlation Energy =     -13.9908151099258529
    Empirical Dispersion Energy =           0.0000000000000000
    VV10 Nonlocal Energy =                  0.0000000000000000
    Total Energy =                       -150.3744509439675028

  UHF NO Occupations:
  HONO-2 :    2B1u 1.9997271
  HONO-1 :    1B2u 1.9983167
  HONO-0 :    1B3g 1.0000000
  LUNO+0 :    2B2u 0.0016833
  LUNO+1 :    3B1u 0.0002729
  LUNO+2 :    4 Ag 0.0001499
  LUNO+3 :    2B3u 0.0000493

Computation Completed

Properties will be evaluated at   0.000000,   0.000000,   0.000000 [a0]

Properties computed using the B3LYP density matrix

 Multipole Moments:

 ------------------------------------------------------------------------------------
     Multipole            Electronic (a.u.)      Nuclear  (a.u.)        Total (a.u.)
 ------------------------------------------------------------------------------------

 L = 1.  Multiply by 2.5417464519 to convert [e a0] to [Debye]
 Dipole X            :          0.0000000            0.0000000            0.0000000
 Dipole Y            :          0.0000000            0.0000000            0.0000000
 Dipole Z            :          0.0000000            0.0000000            0.0000000
 Magnitude           :                                                    0.0000000

 L = 2.  Multiply by 1.3450342976 to convert [e a0^2] to [Debye ang]
 Quadrupole XX       :         -9.7146763            0.0000000           -9.7146763
 Quadrupole XY       :          0.0000000            0.0000000            0.0000000
 Quadrupole XZ       :          0.0000000            0.0000000            0.0000000
 Quadrupole YY       :         -8.9165597            0.0000000           -8.9165597
 Quadrupole YZ       :          0.0000000            0.0000000            0.0000000
 Quadrupole ZZ       :        -40.3723073           29.0265771          -11.3457302
 Traceless XX        :          9.9531714           -9.6755257            0.2776458
 Traceless YY        :         10.7512880           -9.6755257            1.0757624
 Traceless ZZ        :        -20.7044595           19.3510514           -1.3534081

 ------------------------------------------------------------------------------------
  ==> Computing MBIS Charges <==

  Electron Count from Grid (Expected Number): 17.00000 (17.00000)
  Difference: -0.00000

  MBIS Charges: (a.u.)
   Center  Symbol  Z      Pop.       Charge
      1       O    8    8.499999   -0.499999
      2       O    8    8.499999   -0.499999

  MBIS Dipoles: [e a0]
   Center  Symbol  Z        X           Y           Z
      1       O    8   -0.000000    0.000000    0.165749
      2       O    8   -0.000000   -0.000000   -0.165749

  MBIS Quadrupoles: [e a0^2]
   Center  Symbol  Z      XX        XY        XZ        YY        YZ        ZZ
      1       O    8   -4.8573   -0.0000   -0.0000   -4.4583   -0.0000   -4.3193
      2       O    8   -4.8573    0.0000    0.0000   -4.4583    0.0000   -4.3193

  MBIS Octupoles: [e a0^3]
   Center  Symbol  Z      XXX       XXY       XXZ       XYY       XYZ       XZZ       YYY       YYZ       YZZ       ZZZ
      1       O    8   -0.0000   -0.0000    0.2461   -0.0000   -0.0000    0.0000    0.0000    0.1160    0.0000   -0.1670
      2       O    8   -0.0000   -0.0000   -0.2461    0.0000    0.0000   -0.0000    0.0000   -0.1160    0.0000    0.1670

  MBIS Radial Moments:
   Center  Symbol  Z      [a0^2]      [a0^3]      [a0^4]
      1       O    8   13.634908   27.379528   65.599711
      2       O    8   13.634908   27.379528   65.599711

  MBIS Valence Widths: [a0]
   Center  Symbol  Z     Width
      1       O    8    0.408279
      2       O    8    0.408279

*** tstop() called on Mac.lan at Sun Aug 10 17:28:24 2025
Module time:
	user time   =       4.12 seconds =       0.07 minutes
	system time =       2.28 seconds =       0.04 minutes
	total time  =          1 seconds =       0.02 minutes
Total time:
	user time   =      16.13 seconds =       0.27 minutes
	system time =       4.70 seconds =       0.08 minutes
	total time  =          2 seconds =       0.03 minutes

    Psi4 stopped on: Sunday, 10 August 2025 05:28PM
    Psi4 wall time for execution: 0:00:02.04

*** Psi4 exiting successfully. Buy a developer a beer!
