                               Psi4 1.9.1 release

  ==> Input File <==

--------------------------------------------------------------------------
molecule {
-1 2
O           0.000000           0.000000           0.000000
O           0.000000           0.000000           1.996812
}

set {
basis              cc-pvtz
reference          uks
maxiter            500
DAMPING_PERCENTAGE 1
E_CONVERGENCE      1.0E-8
D_CONVERGENCE      1.0E-8
DIIS_MAX_VECS      400
MBIS_MAXITER       8000
guess              read
}

E, wfn = energy('b3lyp', restart_file='last_wfn', return_wfn=True)
properties('b3lyp','MBIS_CHARGES', wfn=wfn)
wfn.to_file('last_wfn')
--------------------------------------------------------------------------

    Molecular point group: d2h
  Charge       = -1
  Multiplicity = 2
  Basis Set: CC-PVTZ
    Blend: CC-PVTZ
  Basis Set: (CC-PVTZ AUX)
    Blend: CC-PVTZ-JKFIT
  @DF-UKS Final Energy:  -150.27246169884307
    Total Energy =                       -150.2724616988430455
 Dipole X            :          0.0000000            0.0000000            0.0000000
 Dipole Y            :          0.0000000            0.0000000            0.0000000
 Dipole Z            :          0.0000000            0.0000000            0.0000000
 Magnitude           :                                                    0.0000000
    Molecular point group: d2h

    Geometry (in Angstrom), charge = -1, multiplicity = 2:

       Center              X                  Y                   Z               Mass
    ------------   -----------------  -----------------  -----------------  -----------------
         O            0.000000000000     0.000000000000    -0.998406000000    15.994914619570
         O            0.000000000000     0.000000000000     0.998406000000    15.994914619570

  Charge       = -1
  Multiplicity = 2
  Basis Set: CC-PVTZ
    Blend: CC-PVTZ
  Basis Set: (CC-PVTZ AUX)
    Blend: CC-PVTZ-JKFIT

    Orbital Energies [Eh]
    ---------------------

    Alpha Occupied:

       1Ag   -18.890224     1B1u  -18.890204     2Ag    -0.640309
       2B1u   -0.578761     1B2u   -0.077871     3Ag    -0.066108
       1B3u   -0.039960     1B3g   -0.036793     1B2g    0.003735

    Alpha Virtual:

       3B1u    0.135336     2B2u    0.796561     4B1u    0.807643
       2B3u    0.818662     2B3g    0.897656     2B2g    0.917819
       4Ag     0.917823     5Ag     1.014800     5B1u    1.346410
       6Ag     1.602041     3B2u    1.607316     3B3u    1.628169
       1B1g    1.734062     7Ag     1.735402     1Au     1.786235
       6B1u    1.786460     3B3g    1.956380     3B2g    1.979589
       7B1u    2.475476     4B2u    3.835596     4B3u    3.870486
       4B3g    3.876895     8Ag     3.906809     4B2g    3.911537
       8B1u    3.924903     9Ag     5.307566     5B2u    5.333763
       5B3u    5.360692     2B1g    5.397112    10Ag     5.401005
       9B1u    5.413136     5B3g    5.414907     2Au     5.415160
       5B2g    5.416215     6B2u    5.417600     6B3u    5.418097
       6B3g    5.446885     6B2g    5.473131    10B1u    5.544914
       7B2u    6.345118     7B3u    6.378454    11Ag     6.404435
       3B1g    6.436546    12Ag     6.446151    11B1u    6.475319
       3Au     6.475699     7B3g    6.615906     7B2g    6.648919
      12B1u    6.926228    13Ag     7.329869    13B1u    8.172766

    Beta Occupied:

       1Ag   -18.876577     1B1u  -18.876544     2Ag    -0.603323
       2B1u   -0.536915     3Ag    -0.054087     1B3u   -0.027823
       1B2g    0.017429     1B2u    0.018295

    Beta Virtual:

       1B3g    0.117213     3B1u    0.150904     4B1u    0.815374
       2B3u    0.824421     2B2u    0.836872     2B2g    0.923235
       4Ag     0.927299     2B3g    0.934317     5Ag     1.026226
       5B1u    1.361443     6Ag     1.613463     3B3u    1.630357
       3B2u    1.631013     1B1g    1.759006     7Ag     1.760334
       1Au     1.812858     6B1u    1.814184     3B2g    1.982793
       3B3g    1.985377     7B1u    2.488701     4B3u    3.881252
       4B2u    3.896522     8Ag     3.916488     4B2g    3.922266
       8B1u    3.936285     4B3g    3.937660     9Ag     5.327658
       5B3u    5.366009     5B2u    5.366303     2B1g    5.420992
      10Ag     5.422367     2Au     5.439188     9B1u    5.440566
       6B3u    5.451595     6B2u    5.451849     5B2g    5.452668
       5B3g    5.452960     6B2g    5.475777     6B3g    5.476208
      10B1u    5.558465     7B3u    6.385795     7B2u    6.398610
      11Ag     6.432170     3B1g    6.485901    12Ag     6.489457
       3Au     6.524897    11B1u    6.528111     7B2g    6.655934
       7B3g    6.668091    12B1u    6.938760    13Ag     7.356387
      13B1u    8.201658

    Final Occupation by Irrep:
             Ag   B1g   B2g   B3g    Au   B1u   B2u   B3u
    DOCC [     3,    0,    1,    0,    0,    2,    1,    1 ]
    SOCC [     0,    0,    0,    1,    0,    0,    0,    0 ]
    NA   [     3,    0,    1,    1,    0,    2,    1,    1 ]
    NB   [     3,    0,    1,    0,    0,    2,    1,    1 ]

  @DF-UKS Final Energy:  -150.27246169857804

   => Energetics <=

    Nuclear Repulsion Energy =             16.9607061069745164
    One-Electron Energy =                -246.3379107799406427
    Two-Electron Energy =                  92.9718750236278026
    DFT Exchange-Correlation Energy =     -13.8671320492397303
    Empirical Dispersion Energy =           0.0000000000000000
    VV10 Nonlocal Energy =                  0.0000000000000000
    Total Energy =                       -150.2724616985780415

  UHF NO Occupations:
  HONO-2 :    2B1u 1.9998225
  HONO-1 :    1B2u 1.9978341
  HONO-0 :    1B3g 1.0000000
  LUNO+0 :    2B2u 0.0021659
  LUNO+1 :    3B1u 0.0001775
  LUNO+2 :    4 Ag 0.0001595
  LUNO+3 :    2B3u 0.0000557

Computation Completed

Properties will be evaluated at   0.000000,   0.000000,   0.000000 [a0]

Properties computed using the B3LYP density matrix

 Multipole Moments:

 ------------------------------------------------------------------------------------
     Multipole            Electronic (a.u.)      Nuclear  (a.u.)        Total (a.u.)
 ------------------------------------------------------------------------------------

 L = 1.  Multiply by 2.5417464519 to convert [e a0] to [Debye]
 Dipole X            :          0.0000000            0.0000000            0.0000000
 Dipole Y            :          0.0000000            0.0000000            0.0000000
 Dipole Z            :          0.0000000            0.0000000            0.0000000
 Magnitude           :                                                    0.0000000

 L = 2.  Multiply by 1.3450342976 to convert [e a0^2] to [Debye ang]
 Quadrupole XX       :         -9.9748804            0.0000000           -9.9748804
 Quadrupole XY       :          0.0000000            0.0000000            0.0000000
 Quadrupole XZ       :          0.0000000            0.0000000            0.0000000
 Quadrupole YY       :         -9.1663072            0.0000000           -9.1663072
 Quadrupole YZ       :          0.0000000            0.0000000            0.0000000
 Quadrupole ZZ       :        -69.1139998           56.9550296          -12.1589702
 Traceless XX        :         19.4435153          -18.9850099            0.4585055
 Traceless YY        :         20.2520886          -18.9850099            1.2670787
 Traceless ZZ        :        -39.6956040           37.9700197           -1.7255842

 ------------------------------------------------------------------------------------
  ==> Computing MBIS Charges <==

  Electron Count from Grid (Expected Number): 17.00000 (17.00000)
  Difference:  0.00000

  MBIS Charges: (a.u.)
   Center  Symbol  Z      Pop.       Charge
      1       O    8    8.500001   -0.500001
      2       O    8    8.500001   -0.500001

  MBIS Dipoles: [e a0]
   Center  Symbol  Z        X           Y           Z
      1       O    8   -0.000000    0.000000    0.005840
      2       O    8    0.000000    0.000000   -0.005840

  MBIS Quadrupoles: [e a0^2]
   Center  Symbol  Z      XX        XY        XZ        YY        YZ        ZZ
      1       O    8   -4.9874    0.0000    0.0000   -4.5832    0.0000   -4.2776
      2       O    8   -4.9874    0.0000   -0.0000   -4.5832   -0.0000   -4.2776

  MBIS Octupoles: [e a0^3]
   Center  Symbol  Z      XXX       XXY       XXZ       XYY       XYZ       XZZ       YYY       YYZ       YZZ       ZZZ
      1       O    8   -0.0000   -0.0000   -0.0267    0.0000    0.0000    0.0000    0.0000   -0.1026    0.0000   -0.4225
      2       O    8   -0.0000   -0.0000    0.0267    0.0000   -0.0000    0.0000    0.0000    0.1026    0.0000    0.4225

  MBIS Radial Moments:
   Center  Symbol  Z      [a0^2]      [a0^3]      [a0^4]
      1       O    8   13.848197   28.022094   67.541548
      2       O    8   13.848197   28.022094   67.541548

  MBIS Valence Widths: [a0]
   Center  Symbol  Z     Width
      1       O    8    0.411687
      2       O    8    0.411687

*** tstop() called on Mac.lan at Sun Aug 10 17:29:08 2025
Module time:
	user time   =       2.90 seconds =       0.05 minutes
	system time =       2.39 seconds =       0.04 minutes
	total time  =          1 seconds =       0.02 minutes
Total time:
	user time   =      14.59 seconds =       0.24 minutes
	system time =       4.93 seconds =       0.08 minutes
	total time  =          2 seconds =       0.03 minutes

    Psi4 stopped on: Sunday, 10 August 2025 05:29PM
    Psi4 wall time for execution: 0:00:01.91

*** Psi4 exiting successfully. Buy a developer a beer!
