                               Psi4 1.9.1 release

  ==> Input File <==

--------------------------------------------------------------------------
molecule {
-1 3
O           0.000000           0.000000           0.000000
N           0.000000           0.000000           0.682406
}

set {
basis              cc-pvtz
reference          uks
maxiter            500
DAMPING_PERCENTAGE 1
E_CONVERGENCE      1.0E-8
D_CONVERGENCE      1.0E-8
DIIS_MAX_VECS      400
MBIS_MAXITER       8000
guess              read
}

E, wfn = energy('b3lyp', restart_file='last_wfn', return_wfn=True)
properties('b3lyp','MBIS_CHARGES', wfn=wfn)
wfn.to_file('last_wfn')
--------------------------------------------------------------------------

    Molecular point group: c2v
  Charge       = -1
  Multiplicity = 3
  Basis Set: CC-PVTZ
    Blend: CC-PVTZ
  Basis Set: (CC-PVTZ AUX)
    Blend: CC-PVTZ-JKFIT
  @DF-UKS Final Energy:  -128.10020124121272
    Total Energy =                       -128.1002012412127158
 Dipole X            :          0.0000000            0.0000000            0.0000000
 Dipole Y            :          0.0000000            0.0000000            0.0000000
 Dipole Z            :         -1.4775862           -0.0025874           -1.4801737
 Magnitude           :                                                    1.4801737
    Molecular point group: c2v

    Geometry (in Angstrom), charge = -1, multiplicity = 3:

       Center              X                  Y                   Z               Mass
    ------------   -----------------  -----------------  -----------------  -----------------
         O            0.000000000000     0.000000000000    -0.318547414590    15.994914619570
         N            0.000000000000     0.000000000000     0.363858585410    14.003074004430

  Charge       = -1
  Multiplicity = 3
  Basis Set: CC-PVTZ
    Blend: CC-PVTZ
  Basis Set: (CC-PVTZ AUX)
    Blend: CC-PVTZ-JKFIT

    Orbital Energies [Eh]
    ---------------------

    Alpha Occupied:

       1A1   -18.910839     2A1   -14.063324     3A1    -1.239631
       1B2    -0.508452     1B1    -0.508452     4A1    -0.338554
       5A1    -0.147943     2B2     0.380598     2B1     0.380598

    Alpha Virtual:

       6A1     0.487846     3B2     0.616335     3B1     0.616335
       7A1     0.671326     8A1     0.816169     4B2     0.945193
       4B1     0.945193     9A1     1.213003     1A2     1.213004
      10A1     1.538059     5B2     1.742995     5B1     1.742995
      11A1     1.748186    12A1     1.998467     2A2     1.998470
      13A1     2.291779     6B2     2.301340     6B1     2.301340
       7B2     2.978224     7B1     2.978224    14A1     3.524728
      15A1     3.729112     8B2     4.026957     8B1     4.026957
      16A1     4.335318     3A2     4.335319    17A1     4.381426
       9B2     4.406864     9B1     4.406864     4A2     4.703932
      18A1     4.703934    10B2     4.748106    10B1     4.748106
      19A1     5.105443    11B2     5.574381    11B1     5.574381
      12B1     5.664143    12B2     5.664143    20A1     6.365303
       5A2     6.365307    21A1     6.595133    13B2     7.190302
      13B1     7.190302    22A1     7.459143     6A2     7.459144
      23A1     7.601523    14B2     9.300594    14B1     9.300594
      24A1     9.323430    25A1    11.079105    26A1    27.369810

    Beta Occupied:

       1A1   -18.896937     2A1   -14.056710     3A1    -1.225054
       1B2    -0.468254     1B1    -0.468254     4A1    -0.303186
       5A1    -0.096435

    Beta Virtual:

       6A1     0.506557     2B2     0.509539     2B1     0.509539
       3B1     0.639212     3B2     0.639212     7A1     0.692338
       8A1     0.853906     4B2     0.998704     4B1     0.998704
       1A2     1.249779     9A1     1.249780    10A1     1.553664
      11A1     1.773401     5B2     1.779922     5B1     1.779922
      12A1     2.049583     2A2     2.049584    13A1     2.309709
       6B2     2.333121     6B1     2.333121     7B2     3.010655
       7B1     3.010655    14A1     3.557758    15A1     3.743093
       8B2     4.060127     8B1     4.060127     3A2     4.356679
      16A1     4.356679    17A1     4.402290     9B2     4.441774
       9B1     4.441774     4A2     4.750518    18A1     4.750518
      10B2     4.776131    10B1     4.776131    19A1     5.123433
      11B2     5.602372    11B1     5.602372    12B1     5.704106
      12B2     5.704106    20A1     6.413831     5A2     6.413832
      21A1     6.615733    13B2     7.213482    13B1     7.213482
      22A1     7.494411     6A2     7.494411    23A1     7.610966
      14B2     9.331970    14B1     9.331970    24A1     9.335392
      25A1    11.104849    26A1    27.387191

    Final Occupation by Irrep:
             A1    A2    B1    B2
    DOCC [     5,    0,    1,    1 ]
    SOCC [     0,    0,    1,    1 ]
    NA   [     5,    0,    2,    2 ]
    NB   [     5,    0,    1,    1 ]

  @DF-UKS Final Energy:  -128.10020125852998

   => Energetics <=

    Nuclear Repulsion Energy =             43.4256495363757082
    One-Electron Energy =                -262.9931813493124650
    Two-Electron Energy =                 104.8445170306347478
    DFT Exchange-Correlation Energy =     -13.3771864762279726
    Empirical Dispersion Energy =           0.0000000000000000
    VV10 Nonlocal Energy =                  0.0000000000000000
    Total Energy =                       -128.1002012585299781

  UHF NO Occupations:
  HONO-2 :    5 A1 1.9996629
  HONO-1 :    2 B2 1.0000000
  HONO-0 :    2 B1 1.0000000
  LUNO+0 :    6 A1 0.0003371
  LUNO+1 :    3 B1 0.0001006
  LUNO+2 :    3 B2 0.0001006
  LUNO+3 :    7 A1 0.0000477

Computation Completed

Properties will be evaluated at   0.000000,   0.000000,   0.000000 [a0]

Properties computed using the B3LYP density matrix

 Multipole Moments:

 ------------------------------------------------------------------------------------
     Multipole            Electronic (a.u.)      Nuclear  (a.u.)        Total (a.u.)
 ------------------------------------------------------------------------------------

 L = 1.  Multiply by 2.5417464519 to convert [e a0] to [Debye]
 Dipole X            :          0.0000000            0.0000000            0.0000000
 Dipole Y            :          0.0000000            0.0000000            0.0000000
 Dipole Z            :         -1.4775862           -0.0025874           -1.4801737
 Magnitude           :                                                    1.4801737

 L = 2.  Multiply by 1.3450342976 to convert [e a0^2] to [Debye ang]
 Quadrupole XX       :         -9.9195392            0.0000000           -9.9195392
 Quadrupole XY       :          0.0000000            0.0000000            0.0000000
 Quadrupole XZ       :          0.0000000            0.0000000            0.0000000
 Quadrupole YY       :         -9.9195392            0.0000000           -9.9195392
 Quadrupole YZ       :          0.0000000            0.0000000            0.0000000
 Quadrupole ZZ       :        -18.4100101            6.2084074          -12.2016027
 Traceless XX        :          2.8301570           -2.0694691            0.7606878
 Traceless YY        :          2.8301570           -2.0694691            0.7606878
 Traceless ZZ        :         -5.6603139            4.1389383           -1.5213756

 ------------------------------------------------------------------------------------
  ==> Computing MBIS Charges <==

  Electron Count from Grid (Expected Number): 16.00000 (16.00000)
  Difference:  0.00000

  MBIS Charges: (a.u.)
   Center  Symbol  Z      Pop.       Charge
      1       O    8    7.599419    0.400581
      2       N    7    8.400581   -1.400581

  MBIS Dipoles: [e a0]
   Center  Symbol  Z        X           Y           Z
      1       O    8   -0.000000   -0.000000    0.128259
      2       N    7   -0.000000    0.000000   -0.404266

  MBIS Quadrupoles: [e a0^2]
   Center  Symbol  Z      XX        XY        XZ        YY        YZ        ZZ
      1       O    8   -2.5192   -0.0000   -0.0000   -2.5192    0.0000   -3.1532
      2       N    7   -7.4004    0.0000   -0.0000   -7.4004    0.0000   -7.8210

  MBIS Octupoles: [e a0^3]
   Center  Symbol  Z      XXX       XXY       XXZ       XYY       XYZ       XZZ       YYY       YYZ       YZZ       ZZZ
      1       O    8    0.0000   -0.0000    0.2198   -0.0000   -0.0000    0.0000   -0.0000    0.2198   -0.0000    0.5754
      2       N    7   -0.0000    0.0000   -2.2145   -0.0000   -0.0000   -0.0000    0.0000   -2.2145    0.0000    0.9057

  MBIS Radial Moments:
   Center  Symbol  Z      [a0^2]      [a0^3]      [a0^4]
      1       O    8    8.191524   13.622852   27.545589
      2       N    7   22.621785   60.222839   186.895527

  MBIS Valence Widths: [a0]
   Center  Symbol  Z     Width
      1       O    8    0.335400
      2       N    7    0.530565

*** tstop() called on Mac.lan at Sun Aug 10 17:46:12 2025
Module time:
	user time   =       4.42 seconds =       0.07 minutes
	system time =       2.64 seconds =       0.04 minutes
	total time  =          1 seconds =       0.02 minutes
Total time:
	user time   =      17.70 seconds =       0.29 minutes
	system time =       4.90 seconds =       0.08 minutes
	total time  =          2 seconds =       0.03 minutes

    Psi4 stopped on: Sunday, 10 August 2025 05:46PM
    Psi4 wall time for execution: 0:00:02.18

*** Psi4 exiting successfully. Buy a developer a beer!
