                               Psi4 1.9.1 release

  ==> Input File <==

--------------------------------------------------------------------------
molecule {
-1 2
O           0.000000           0.000000           0.000000
C           0.000000           0.000000           1.403434
}

set {
basis              cc-pvtz
reference          uks
maxiter            500
DAMPING_PERCENTAGE 1
E_CONVERGENCE      1.0E-8
D_CONVERGENCE      1.0E-8
DIIS_MAX_VECS      400
MBIS_MAXITER       8000
guess              read
}

E, wfn = energy('b3lyp', restart_file='last_wfn', return_wfn=True)
properties('b3lyp','MBIS_CHARGES', wfn=wfn)
wfn.to_file('last_wfn')
--------------------------------------------------------------------------

    Molecular point group: c2v
  Charge       = -1
  Multiplicity = 2
  Basis Set: CC-PVTZ
    Blend: CC-PVTZ
  Basis Set: (CC-PVTZ AUX)
    Blend: CC-PVTZ-JKFIT
  @DF-UKS Final Energy:  -113.25726346247029
    Total Energy =                       -113.2572634624702914
 Dipole X            :          0.0000000            0.0000000            0.0000000
 Dipole Y            :          0.0000000            0.0000000            0.0000000
 Dipole Z            :         -0.4857117           -0.0028906           -0.4886023
 Magnitude           :                                                    0.4886023
    Molecular point group: c2v

    Geometry (in Angstrom), charge = -1, multiplicity = 2:

       Center              X                  Y                   Z               Mass
    ------------   -----------------  -----------------  -----------------  -----------------
         O            0.000000000000     0.000000000000    -0.601580973861    15.994914619570
         C            0.000000000000     0.000000000000     0.801853026139    12.000000000000

  Charge       = -1
  Multiplicity = 2
  Basis Set: CC-PVTZ
    Blend: CC-PVTZ
  Basis Set: (CC-PVTZ AUX)
    Blend: CC-PVTZ-JKFIT

    Orbital Energies [Eh]
    ---------------------

    Alpha Occupied:

       1A1   -18.857629     2A1    -9.958239     3A1    -0.683264
       4A1    -0.246263     1B1    -0.083940     1B2    -0.064300
       5A1    -0.055353     2B1     0.125717

    Alpha Virtual:

       2B2     0.215345     6A1     0.393644     3B1     0.549624
       3B2     0.564593     7A1     0.584178     8A1     0.649829
       9A1     0.817022     4B1     0.898317     4B2     0.901190
       1A2     0.936736    10A1     0.939466     5B1     1.078301
       5B2     1.079426    11A1     1.356222    12A1     1.488496
       2A2     1.787990    13A1     1.788604     6B1     2.032067
       6B2     2.036299     7B1     2.316144    14A1     2.324185
       7B2     2.327523    15A1     2.510364     8B1     2.960169
       8B2     2.960991     3A2     3.030668    16A1     3.032923
       9B1     3.208494     9B2     3.215622     4A2     3.238007
      17A1     3.243690    18A1     3.342615    10B1     3.456709
      10B2     3.461584    19A1     3.523433    11B1     4.122215
      11B2     4.124973    20A1     4.129156    12B1     5.420809
      12B2     5.420846     5A2     5.556507    21A1     5.556742
      22A1     5.581842    13B2     5.961266    13B1     5.963625
      23A1     6.491996     6A2     6.529871    24A1     6.530909
      14B1     6.949578    14B2     6.951232    25A1     7.533452
      26A1     9.287544

    Beta Occupied:

       1A1   -18.850846     2A1    -9.946847     3A1    -0.668145
       4A1    -0.217744     1B2    -0.059341     5A1    -0.036280
       1B1    -0.035084

    Beta Virtual:

       2B2     0.226875     2B1     0.259693     6A1     0.399853
       3B2     0.572425     3B1     0.597442     7A1     0.600739
       8A1     0.663024     9A1     0.822680     4B2     0.902645
       4B1     0.916410     1A2     0.967680    10A1     0.968052
       5B2     1.081187     5B1     1.104455    11A1     1.367037
      12A1     1.493980     2A2     1.799917    13A1     1.800052
       6B2     2.038689     6B1     2.059575    14A1     2.336019
       7B2     2.336789     7B1     2.369524    15A1     2.522853
       8B2     3.003290     8B1     3.003407    16A1     3.055840
       3A2     3.056081     9B2     3.219843     9B1     3.248498
      17A1     3.292773     4A2     3.295216    18A1     3.359610
      10B2     3.464427    10B1     3.492714    19A1     3.540024
      11B2     4.128339    20A1     4.138774    11B1     4.151034
      12B2     5.435788    12B1     5.435791    21A1     5.563748
       5A2     5.566904    22A1     5.594856    13B2     5.962587
      13B1     5.981493    23A1     6.500102     6A2     6.554081
      24A1     6.554531    14B2     6.952826    14B1     6.972587
      25A1     7.543512    26A1     9.299621

    Final Occupation by Irrep:
             A1    A2    B1    B2
    DOCC [     5,    0,    1,    1 ]
    SOCC [     0,    0,    1,    0 ]
    NA   [     5,    0,    2,    1 ]
    NB   [     5,    0,    1,    1 ]

  @DF-UKS Final Energy:  -113.25726345248825

   => Energetics <=

    Nuclear Repulsion Energy =             18.0988248198062784
    One-Electron Energy =                -194.9023472046027337
    Two-Electron Energy =                  74.9041178080578760
    DFT Exchange-Correlation Energy =     -11.3578588757496686
    Empirical Dispersion Energy =           0.0000000000000000
    VV10 Nonlocal Energy =                  0.0000000000000000
    Total Energy =                       -113.2572634524882460

  UHF NO Occupations:
  HONO-2 :    1 B1 1.9991302
  HONO-1 :    5 A1 1.9990974
  HONO-0 :    2 B1 1.0000000
  LUNO+0 :    6 A1 0.0009026
  LUNO+1 :    3 B1 0.0008698
  LUNO+2 :    2 B2 0.0001806
  LUNO+3 :    7 A1 0.0000497

Computation Completed

Properties will be evaluated at   0.000000,   0.000000,   0.000000 [a0]

Properties computed using the B3LYP density matrix

 Multipole Moments:

 ------------------------------------------------------------------------------------
     Multipole            Electronic (a.u.)      Nuclear  (a.u.)        Total (a.u.)
 ------------------------------------------------------------------------------------

 L = 1.  Multiply by 2.5417464519 to convert [e a0] to [Debye]
 Dipole X            :          0.0000000            0.0000000            0.0000000
 Dipole Y            :          0.0000000            0.0000000            0.0000000
 Dipole Z            :         -0.4857120           -0.0028906           -0.4886026
 Magnitude           :                                                    0.4886026

 L = 2.  Multiply by 1.3450342976 to convert [e a0^2] to [Debye ang]
 Quadrupole XX       :        -11.2333380            0.0000000          -11.2333380
 Quadrupole XY       :          0.0000000            0.0000000            0.0000000
 Quadrupole XZ       :          0.0000000            0.0000000            0.0000000
 Quadrupole YY       :         -9.7347527            0.0000000           -9.7347527
 Quadrupole YZ       :          0.0000000            0.0000000            0.0000000
 Quadrupole ZZ       :        -38.0260240           24.1154258          -13.9105982
 Traceless XX        :          8.4313669           -8.0384753            0.3928917
 Traceless YY        :          9.9299521           -8.0384753            1.8914769
 Traceless ZZ        :        -18.3613191           16.0769505           -2.2843685

 ------------------------------------------------------------------------------------
  ==> Computing MBIS Charges <==

  Electron Count from Grid (Expected Number): 15.00000 (15.00000)
  Difference: -0.00000

  MBIS Charges: (a.u.)
   Center  Symbol  Z      Pop.       Charge
      1       O    8    8.480589   -0.480589
      2       C    6    6.519410   -0.519410

  MBIS Dipoles: [e a0]
   Center  Symbol  Z        X           Y           Z
      1       O    8    0.000000   -0.000000    0.087461
      2       C    6   -0.000000    0.000000   -0.335357

  MBIS Quadrupoles: [e a0^2]
   Center  Symbol  Z      XX        XY        XZ        YY        YZ        ZZ
      1       O    8   -4.4965   -0.0000   -0.0000   -4.2885    0.0000   -4.4584
      2       C    6   -6.7368   -0.0000    0.0000   -5.4463    0.0000   -6.4233

  MBIS Octupoles: [e a0^3]
   Center  Symbol  Z      XXX       XXY       XXZ       XYY       XYZ       XZZ       YYY       YYZ       YZZ       ZZZ
      1       O    8   -0.0000   -0.0000    0.1068   -0.0000    0.0000    0.0000   -0.0000    0.1270   -0.0000    0.0772
      2       C    6   -0.0000    0.0000   -0.7556   -0.0000    0.0000    0.0000    0.0000   -0.1632    0.0000   -0.1828

  MBIS Radial Moments:
   Center  Symbol  Z      [a0^2]      [a0^3]      [a0^4]
      1       O    8   13.243350   26.135277   61.711875
      2       C    6   18.606457   50.653288   162.015903

  MBIS Valence Widths: [a0]
   Center  Symbol  Z     Width
      1       O    8    0.403198
      2       C    6    0.573009

*** tstop() called on Mac.lan at Sun Aug 10 17:43:20 2025
Module time:
	user time   =       3.85 seconds =       0.06 minutes
	system time =       1.95 seconds =       0.03 minutes
	total time  =          0 seconds =       0.00 minutes
Total time:
	user time   =      17.77 seconds =       0.30 minutes
	system time =       4.01 seconds =       0.07 minutes
	total time  =          2 seconds =       0.03 minutes

    Psi4 stopped on: Sunday, 10 August 2025 05:43PM
    Psi4 wall time for execution: 0:00:02.11

*** Psi4 exiting successfully. Buy a developer a beer!
