                               Psi4 1.9.1 release

  ==> Input File <==

--------------------------------------------------------------------------
molecule {
-1 1
N           0.000000           0.000000           0.000000
C           0.000000           0.000000           1.755822
}

set {
basis              cc-pvtz
reference          uks
maxiter            500
DAMPING_PERCENTAGE 1
E_CONVERGENCE      1.0E-8
D_CONVERGENCE      1.0E-8
DIIS_MAX_VECS      400
MBIS_MAXITER       8000
guess              read
}

E, wfn = energy('b3lyp', restart_file='last_wfn', return_wfn=True)
properties('b3lyp','MBIS_CHARGES', wfn=wfn)
wfn.to_file('last_wfn')
--------------------------------------------------------------------------

    Molecular point group: c2v
  Charge       = -1
  Multiplicity = 1
  Basis Set: CC-PVTZ
    Blend: CC-PVTZ
  Basis Set: (CC-PVTZ AUX)
    Blend: CC-PVTZ-JKFIT
  @DF-UKS Final Energy:   -92.65189873223770
    Total Energy =                        -92.6518987322377114
 Dipole X            :          0.0000000            0.0000000            0.0000000
 Dipole Y            :          0.0000000            0.0000000            0.0000000
 Dipole Z            :         -0.0367324            0.0023535           -0.0343789
 Magnitude           :                                                    0.0343789
    Molecular point group: c2v

    Geometry (in Angstrom), charge = -1, multiplicity = 1:

       Center              X                  Y                   Z               Mass
    ------------   -----------------  -----------------  -----------------  -----------------
         N            0.000000000000     0.000000000000    -0.810283584026    14.003074004430
         C            0.000000000000     0.000000000000     0.945538415974    12.000000000000

  Charge       = -1
  Multiplicity = 1
  Basis Set: CC-PVTZ
    Blend: CC-PVTZ
  Basis Set: (CC-PVTZ AUX)
    Blend: CC-PVTZ-JKFIT

    Orbital Energies [Eh]
    ---------------------

    Alpha Occupied:

       1A1   -14.094179     2A1   -10.017767     3A1    -0.452713
       4A1    -0.232670     5A1    -0.018027     1B1     0.008966
       1B2     0.008966

    Alpha Virtual:

       2B2     0.171307     2B1     0.171307     6A1     0.322576
       7A1     0.533160     3B2     0.556622     3B1     0.556622
       8A1     0.612555     9A1     0.717410     4B2     0.760229
       4B1     0.760229     1A2     0.927985    10A1     0.927985
       5B2     0.980038     5B1     0.980038    11A1     1.109355
      12A1     1.309717    13A1     1.356497     2A2     1.356497
       6B2     1.589302     6B1     1.589302    14A1     1.770748
       7B2     2.236908     7B1     2.236908    15A1     2.501564
      16A1     2.912385     8B2     2.922269     8B1     2.922269
       9B1     2.947948     9B2     2.947948    17A1     2.950629
       3A2     2.950629    18A1     3.217876     4A2     3.217883
      10B2     3.222654    10B1     3.222654    19A1     3.376517
      11B2     3.381529    11B1     3.381529    20A1     3.754484
      21A1     4.107790    12B2     4.186771    12B1     4.186771
      22A1     4.239257     5A2     4.239258    13B2     4.479276
      13B1     4.479276     6A2     4.747916    23A1     4.747945
      24A1     4.796037    14B2     5.030763    14B1     5.030763
      25A1     5.749236    26A1     6.437446

    Beta Occupied:

       1A1   -14.094179     2A1   -10.017767     3A1    -0.452713
       4A1    -0.232670     5A1    -0.018027     1B1     0.008966
       1B2     0.008966

    Beta Virtual:

       2B2     0.171307     2B1     0.171307     6A1     0.322576
       7A1     0.533160     3B2     0.556622     3B1     0.556622
       8A1     0.612555     9A1     0.717410     4B2     0.760229
       4B1     0.760229     1A2     0.927985    10A1     0.927985
       5B2     0.980038     5B1     0.980038    11A1     1.109355
      12A1     1.309717    13A1     1.356497     2A2     1.356497
       6B2     1.589302     6B1     1.589302    14A1     1.770748
       7B2     2.236908     7B1     2.236908    15A1     2.501564
      16A1     2.912385     8B2     2.922269     8B1     2.922269
       9B1     2.947948     9B2     2.947948    17A1     2.950629
       3A2     2.950629    18A1     3.217876     4A2     3.217883
      10B2     3.222654    10B1     3.222654    19A1     3.376517
      11B2     3.381529    11B1     3.381529    20A1     3.754484
      21A1     4.107790    12B2     4.186771    12B1     4.186771
      22A1     4.239257     5A2     4.239258    13B2     4.479276
      13B1     4.479276     6A2     4.747916    23A1     4.747945
      24A1     4.796037    14B2     5.030763    14B1     5.030763
      25A1     5.749236    26A1     6.437446

    Final Occupation by Irrep:
             A1    A2    B1    B2
    DOCC [     5,    0,    1,    1 ]
    SOCC [     0,    0,    0,    0 ]
    NA   [     5,    0,    1,    1 ]
    NB   [     5,    0,    1,    1 ]

  @DF-UKS Final Energy:   -92.65189873220928

   => Energetics <=

    Nuclear Repulsion Energy =             12.6581412285186090
    One-Electron Energy =                -153.9439260703396997
    Two-Electron Energy =                  58.4552701706610307
    DFT Exchange-Correlation Energy =      -9.8213840610492227
    Empirical Dispersion Energy =           0.0000000000000000
    VV10 Nonlocal Energy =                  0.0000000000000000
    Total Energy =                        -92.6518987322092755

  UHF NO Occupations:
  HONO-2 :    4 A1 2.0000000
  HONO-1 :    1 B1 2.0000000
  HONO-0 :    5 A1 2.0000000
  LUNO+0 :    6 A1 0.0000000
  LUNO+1 :    7 A1 0.0000000
  LUNO+2 :    8 A1 0.0000000
  LUNO+3 :    9 A1 0.0000000

Computation Completed

Properties will be evaluated at   0.000000,   0.000000,   0.000000 [a0]

Properties computed using the B3LYP density matrix

 Multipole Moments:

 ------------------------------------------------------------------------------------
     Multipole            Electronic (a.u.)      Nuclear  (a.u.)        Total (a.u.)
 ------------------------------------------------------------------------------------

 L = 1.  Multiply by 2.5417464519 to convert [e a0] to [Debye]
 Dipole X            :          0.0000000            0.0000000            0.0000000
 Dipole Y            :          0.0000000            0.0000000            0.0000000
 Dipole Z            :         -0.0367325            0.0023535           -0.0343790
 Magnitude           :                                                    0.0343790

 L = 2.  Multiply by 1.3450342976 to convert [e a0^2] to [Debye ang]
 Quadrupole XX       :        -11.2606933            0.0000000          -11.2606933
 Quadrupole XY       :          0.0000000            0.0000000            0.0000000
 Quadrupole XZ       :          0.0000000            0.0000000            0.0000000
 Quadrupole YY       :        -11.2606933            0.0000000          -11.2606933
 Quadrupole YZ       :          0.0000000            0.0000000            0.0000000
 Quadrupole ZZ       :        -50.5360578           35.5684263          -14.9676316
 Traceless XX        :         13.0917882          -11.8561421            1.2356461
 Traceless YY        :         13.0917882          -11.8561421            1.2356461
 Traceless ZZ        :        -26.1835764           23.7122842           -2.4712922

 ------------------------------------------------------------------------------------
  ==> Computing MBIS Charges <==

  Electron Count from Grid (Expected Number): 14.00000 (14.00000)
  Difference: -0.00000

  MBIS Charges: (a.u.)
   Center  Symbol  Z      Pop.       Charge
      1       N    7    7.579959   -0.579959
      2       C    6    6.420040   -0.420040

  MBIS Dipoles: [e a0]
   Center  Symbol  Z        X           Y           Z
      1       N    7   -0.000000   -0.000000   -0.037375
      2       C    6   -0.000000    0.000000   -0.134515

  MBIS Quadrupoles: [e a0^2]
   Center  Symbol  Z      XX        XY        XZ        YY        YZ        ZZ
      1       N    7   -5.3888    0.0000   -0.0000   -5.3888    0.0000   -5.5115
      2       C    6   -5.8719    0.0000    0.0000   -5.8719    0.0000   -6.3891

  MBIS Octupoles: [e a0^3]
   Center  Symbol  Z      XXX       XXY       XXZ       XYY       XYZ       XZZ       YYY       YYZ       YZZ       ZZZ
      1       N    7   -0.0000   -0.0000   -0.2814   -0.0000    0.0000   -0.0000   -0.0000   -0.2814   -0.0000   -0.5361
      2       C    6   -0.0000   -0.0000    0.1515    0.0000   -0.0000    0.0000   -0.0000    0.1515    0.0000    0.1314

  MBIS Radial Moments:
   Center  Symbol  Z      [a0^2]      [a0^3]      [a0^4]
      1       N    7   16.289099   37.923020   104.580683
      2       C    6   18.132835   49.183127   157.003611

  MBIS Valence Widths: [a0]
   Center  Symbol  Z     Width
      1       N    7    0.483006
      2       C    6    0.571954

*** tstop() called on Mac.lan at Sun Aug 10 17:41:19 2025
Module time:
	user time   =       3.63 seconds =       0.06 minutes
	system time =       2.29 seconds =       0.04 minutes
	total time  =          0 seconds =       0.00 minutes
Total time:
	user time   =      18.02 seconds =       0.30 minutes
	system time =       4.34 seconds =       0.07 minutes
	total time  =          2 seconds =       0.03 minutes

    Psi4 stopped on: Sunday, 10 August 2025 05:41PM
    Psi4 wall time for execution: 0:00:02.16

*** Psi4 exiting successfully. Buy a developer a beer!
