                               Psi4 1.9.1 release

  ==> Input File <==

--------------------------------------------------------------------------
molecule {
-1 2
O           0.000000           0.000000           0.000000
O           0.000000           0.000000           0.473329
}

set {
basis              cc-pvtz
reference          uks
maxiter            500
DAMPING_PERCENTAGE 1
E_CONVERGENCE      1.0E-8
D_CONVERGENCE      1.0E-8
DIIS_MAX_VECS      400
MBIS_MAXITER       8000
guess              read
}

E, wfn = energy('b3lyp', restart_file='last_wfn', return_wfn=True)
properties('b3lyp','MBIS_CHARGES', wfn=wfn)
wfn.to_file('last_wfn')
--------------------------------------------------------------------------

    Molecular point group: d2h
  Charge       = -1
  Multiplicity = 2
  Basis Set: CC-PVTZ
    Blend: CC-PVTZ
  Basis Set: (CC-PVTZ AUX)
    Blend: CC-PVTZ-JKFIT
  @DF-UKS Final Energy:  -142.12848563790263
    Total Energy =                       -142.1284856379026564
 Dipole X            :          0.0000000            0.0000000            0.0000000
 Dipole Y            :          0.0000000            0.0000000            0.0000000
 Dipole Z            :          0.0000000            0.0000000            0.0000000
 Magnitude           :                                                    0.0000000
    Molecular point group: d2h

    Geometry (in Angstrom), charge = -1, multiplicity = 2:

       Center              X                  Y                   Z               Mass
    ------------   -----------------  -----------------  -----------------  -----------------
         O            0.000000000000     0.000000000000    -0.236664500000    15.994914619570
         O            0.000000000000     0.000000000000     0.236664500000    15.994914619570

  Charge       = -1
  Multiplicity = 2
  Basis Set: CC-PVTZ
    Blend: CC-PVTZ
  Basis Set: (CC-PVTZ AUX)
    Blend: CC-PVTZ-JKFIT

    Orbital Energies [Eh]
    ---------------------

    Alpha Occupied:

       1Ag   -19.794455     1B1u  -19.212473     2Ag    -1.428235
       1B2u   -1.155060     1B3u   -1.133321     3Ag    -0.483069
       2B1u   -0.324785     1B3g    0.470311     1B2g    0.496266

    Alpha Virtual:

       2B2u    0.541004     2B3u    0.563240     3B1u    0.566118
       4Ag     0.689120     5Ag     0.934646     2B3g    1.105007
       2B2g    1.127709     1B1g    1.359157     6Ag     1.359666
       4B1u    1.564499     3B2u    2.125325     3B3u    2.151823
       7Ag     2.153626     5B1u    2.171654     1Au     2.180613
       6B1u    2.194833     3B3g    2.609202     3B2g    2.631002
       4B2u    2.973511     4B3u    2.995515     8Ag     4.001605
       5B3u    4.681221     5B2u    4.681224     7B1u    4.839726
       4B3g    4.860124     4B2g    4.885163     2B1g    4.971387
       9Ag     4.971589     8B1u    5.435365     2Au     5.630307
       9B1u    5.630741     6B2u    5.665017     6B3u    5.686034
      10Ag     6.199038     5B3g    6.271738     5B2g    6.271741
       3B1g    6.477829    11Ag     6.478577     6B3g    6.707085
      12Ag     6.715093     6B2g    6.729223    10B1u    8.103194
       7B2u    9.329299     7B3u    9.347570    13Ag     9.715299
       3Au     9.792076    11B1u    9.792180     7B3g   12.126708
       7B2g   12.145526    12B1u   15.161192    13B1u   41.172867

    Beta Occupied:

       1Ag   -19.791682     1B1u  -19.209395     2Ag    -1.422089
       1B2u   -1.131685     1B3u   -1.130606     3Ag    -0.469215
       2B1u   -0.299540     1B2g    0.506961

    Beta Virtual:

       2B3u    0.570249     2B2u    0.576477     3B1u    0.583835
       1B3g    0.592330     4Ag     0.705983     5Ag     0.945470
       2B2g    1.135007     2B3g    1.157751     1B1g    1.371613
       6Ag     1.372162     4B1u    1.588974     3B3u    2.157219
       7Ag     2.158977     3B2u    2.165163     5B1u    2.198548
       1Au     2.213884     6B1u    2.215960     3B2g    2.636079
       3B3g    2.646115     4B2u    2.989250     4B3u    2.997701
       8Ag     4.013311     5B3u    4.690927     5B2u    4.690944
       7B1u    4.854628     4B2g    4.890570     4B3g    4.893799
       2B1g    4.980642     9Ag     4.981033     8B1u    5.444651
       2Au     5.655166     9B1u    5.656435     6B3u    5.688623
       6B2u    5.693043    10Ag     6.209407     5B2g    6.294269
       5B3g    6.294289     3B1g    6.494718    11Ag     6.495359
      12Ag     6.723446     6B2g    6.731440     6B3g    6.731835
      10B1u    8.113428     7B2u    9.347676     7B3u    9.349070
      13Ag     9.723882     3Au     9.809291    11B1u    9.809999
       7B2g   12.148746     7B3g   12.151203    12B1u   15.164076
      13B1u   41.178357

    Final Occupation by Irrep:
             Ag   B1g   B2g   B3g    Au   B1u   B2u   B3u
    DOCC [     3,    0,    1,    0,    0,    2,    1,    1 ]
    SOCC [     0,    0,    0,    1,    0,    0,    0,    0 ]
    NA   [     3,    0,    1,    1,    0,    2,    1,    1 ]
    NB   [     3,    0,    1,    0,    0,    2,    1,    1 ]

  @DF-UKS Final Energy:  -142.12848563781560

   => Energetics <=

    Nuclear Repulsion Energy =             71.5513764905171570
    One-Electron Energy =                -330.8201135657248528
    Two-Electron Energy =                 132.5663097661946495
    DFT Exchange-Correlation Energy =     -15.4260583288025526
    Empirical Dispersion Energy =           0.0000000000000000
    VV10 Nonlocal Energy =                  0.0000000000000000
    Total Energy =                       -142.1284856378156007

  UHF NO Occupations:
  HONO-2 :    3 Ag 1.9999588
  HONO-1 :    2B1u 1.9999199
  HONO-0 :    1B3g 1.0000000
  LUNO+0 :    3B1u 0.0000801
  LUNO+1 :    4 Ag 0.0000412
  LUNO+2 :    2B2u 0.0000263
  LUNO+3 :    2B2g 0.0000049

Computation Completed

Properties will be evaluated at   0.000000,   0.000000,   0.000000 [a0]

Properties computed using the B3LYP density matrix

 Multipole Moments:

 ------------------------------------------------------------------------------------
     Multipole            Electronic (a.u.)      Nuclear  (a.u.)        Total (a.u.)
 ------------------------------------------------------------------------------------

 L = 1.  Multiply by 2.5417464519 to convert [e a0] to [Debye]
 Dipole X            :          0.0000000            0.0000000            0.0000000
 Dipole Y            :          0.0000000            0.0000000            0.0000000
 Dipole Z            :          0.0000000            0.0000000            0.0000000
 Magnitude           :                                                    0.0000000

 L = 2.  Multiply by 1.3450342976 to convert [e a0^2] to [Debye ang]
 Quadrupole XX       :        -10.5281836            0.0000000          -10.5281836
 Quadrupole XY       :          0.0000000            0.0000000            0.0000000
 Quadrupole XZ       :          0.0000000            0.0000000            0.0000000
 Quadrupole YY       :         -8.6263999            0.0000000           -8.6263999
 Quadrupole YZ       :          0.0000000            0.0000000            0.0000000
 Quadrupole ZZ       :        -16.4879812            3.2002503          -13.2877308
 Traceless XX        :          1.3526713           -1.0667501            0.2859212
 Traceless YY        :          3.2544550           -1.0667501            2.1877049
 Traceless ZZ        :         -4.6071262            2.1335002           -2.4736260

 ------------------------------------------------------------------------------------
  ==> Computing MBIS Charges <==

  Electron Count from Grid (Expected Number): 17.00000 (17.00000)
  Difference:  0.00000

  MBIS Charges: (a.u.)
   Center  Symbol  Z      Pop.       Charge
      1       O    8    8.500001   -0.500001
      2       O    8    8.500001   -0.500001

  MBIS Dipoles: [e a0]
   Center  Symbol  Z        X           Y           Z
      1       O    8    0.000000    0.000000    0.393914
      2       O    8    0.000000   -0.000000   -0.393914

  MBIS Quadrupoles: [e a0^2]
   Center  Symbol  Z      XX        XY        XZ        YY        YZ        ZZ
      1       O    8   -5.2641    0.0000   -0.0000   -4.3132   -0.0000   -6.1915
      2       O    8   -5.2641    0.0000    0.0000   -4.3132   -0.0000   -6.1915

  MBIS Octupoles: [e a0^3]
   Center  Symbol  Z      XXX       XXY       XXZ       XYY       XYZ       XZZ       YYY       YYZ       YZZ       ZZZ
      1       O    8   -0.0000   -0.0000    1.5321   -0.0000   -0.0000   -0.0000    0.0000    1.0759    0.0000    0.7872
      2       O    8   -0.0000   -0.0000   -1.5321   -0.0000    0.0000   -0.0000   -0.0000   -1.0759   -0.0000   -0.7872

  MBIS Radial Moments:
   Center  Symbol  Z      [a0^2]      [a0^3]      [a0^4]
      1       O    8   15.768808   38.044693   109.967090
      2       O    8   15.768808   38.044693   109.967090

  MBIS Valence Widths: [a0]
   Center  Symbol  Z     Width
      1       O    8    0.432388
      2       O    8    0.432388

*** tstop() called on Mac.lan at Sun Aug 10 17:28:06 2025
Module time:
	user time   =       4.08 seconds =       0.07 minutes
	system time =       3.21 seconds =       0.05 minutes
	total time  =          1 seconds =       0.02 minutes
Total time:
	user time   =      20.10 seconds =       0.34 minutes
	system time =       5.49 seconds =       0.09 minutes
	total time  =          3 seconds =       0.05 minutes

    Psi4 stopped on: Sunday, 10 August 2025 05:28PM
    Psi4 wall time for execution: 0:00:02.48

*** Psi4 exiting successfully. Buy a developer a beer!
