                               Psi4 1.9.1 release

  ==> Input File <==

--------------------------------------------------------------------------
molecule {
-1 1
O           0.000000           0.000000           0.000000
H           0.000000           0.000000           1.091949
}

set {
basis              cc-pvtz
reference          uks
maxiter            500
DAMPING_PERCENTAGE 1
E_CONVERGENCE      1.0E-8
D_CONVERGENCE      1.0E-8
DIIS_MAX_VECS      400
MBIS_MAXITER       8000
guess              read
}

E, wfn = energy('b3lyp', restart_file='last_wfn', return_wfn=True)
properties('b3lyp','MBIS_CHARGES', wfn=wfn)
wfn.to_file('last_wfn')
--------------------------------------------------------------------------

    Molecular point group: c2v
  Charge       = -1
  Multiplicity = 1
  Basis Set: CC-PVTZ
    Blend: CC-PVTZ
  Basis Set: (CC-PVTZ AUX)
    Blend: CC-PVTZ-JKFIT
  @DF-UKS Final Energy:   -75.78140327532633
    Total Energy =                        -75.7814032753263263
 Dipole X            :          0.0000000            0.0000000            0.0000000
 Dipole Y            :          0.0000000            0.0000000            0.0000000
 Dipole Z            :         -0.6678798            0.9626806            0.2948008
 Magnitude           :                                                    0.2948008
    Molecular point group: c2v

    Geometry (in Angstrom), charge = -1, multiplicity = 1:

       Center              X                  Y                   Z               Mass
    ------------   -----------------  -----------------  -----------------  -----------------
         O            0.000000000000     0.000000000000    -0.064724483151    15.994914619570
         H            0.000000000000     0.000000000000     1.027224516849     1.007825032230

  Charge       = -1
  Multiplicity = 1
  Basis Set: CC-PVTZ
    Blend: CC-PVTZ
  Basis Set: (CC-PVTZ AUX)
    Blend: CC-PVTZ-JKFIT

    Orbital Energies [Eh]
    ---------------------

    Alpha Occupied:

       1A1   -18.692957     2A1    -0.500717     3A1    -0.023558
       1B1     0.111776     1B2     0.111776

    Alpha Virtual:

       4A1     0.303123     5A1     0.650779     6A1     0.867978
       2B2     0.926941     2B1     0.926941     3B2     1.033391
       3B1     1.033391     7A1     1.294071     8A1     1.489266
       1A2     1.880945     9A1     1.880945     4B1     2.113063
       4B2     2.113063    10A1     2.381409    11A1     2.724479
      12A1     3.546491     2A2     3.546492     5B1     3.713098
       5B2     3.713098    13A1     3.928183     6B1     4.028508
       6B2     4.028508     7B1     4.346957     7B2     4.346957
      14A1     4.425695    15A1     5.187849     8B1     5.580438
       8B2     5.580438     3A2     5.708003    16A1     5.708003
       9B1     6.441734     9B2     6.441734    17A1     6.606105
       4A2     6.662331    18A1     6.662331    10B1     6.956503
      10B2     6.956503    19A1     7.296485    20A1     9.598626

    Beta Occupied:

       1A1   -18.692957     2A1    -0.500717     3A1    -0.023558
       1B2     0.111776     1B1     0.111776

    Beta Virtual:

       4A1     0.303123     5A1     0.650779     6A1     0.867978
       2B2     0.926941     2B1     0.926941     3B2     1.033391
       3B1     1.033391     7A1     1.294071     8A1     1.489266
       1A2     1.880945     9A1     1.880945     4B1     2.113063
       4B2     2.113063    10A1     2.381409    11A1     2.724479
      12A1     3.546491     2A2     3.546492     5B1     3.713098
       5B2     3.713098    13A1     3.928183     6B1     4.028508
       6B2     4.028508     7B1     4.346957     7B2     4.346957
      14A1     4.425695    15A1     5.187849     8B1     5.580438
       8B2     5.580438     3A2     5.708003    16A1     5.708003
       9B1     6.441734     9B2     6.441734    17A1     6.606105
       4A2     6.662331    18A1     6.662331    10B1     6.956503
      10B2     6.956503    19A1     7.296485    20A1     9.598626

    Final Occupation by Irrep:
             A1    A2    B1    B2
    DOCC [     3,    0,    1,    1 ]
    SOCC [     0,    0,    0,    0 ]
    NA   [     3,    0,    1,    1 ]
    NB   [     3,    0,    1,    1 ]

  @DF-UKS Final Energy:   -75.78140327534031

   => Energetics <=

    Nuclear Repulsion Energy =              3.8769371878723278
    One-Electron Energy =                -115.9987084828061938
    Two-Electron Energy =                  43.7595830372199615
    DFT Exchange-Correlation Energy =      -7.4192150176264162
    Empirical Dispersion Energy =           0.0000000000000000
    VV10 Nonlocal Energy =                  0.0000000000000000
    Total Energy =                        -75.7814032753403239

  UHF NO Occupations:
  HONO-2 :    3 A1 2.0000000
  HONO-1 :    1 B2 2.0000000
  HONO-0 :    1 B1 2.0000000
  LUNO+0 :    4 A1 0.0000000
  LUNO+1 :    2 B2 0.0000000
  LUNO+2 :    5 A1 0.0000000
  LUNO+3 :    2 B1 0.0000000

Computation Completed

Properties will be evaluated at   0.000000,   0.000000,   0.000000 [a0]

Properties computed using the B3LYP density matrix

 Multipole Moments:

 ------------------------------------------------------------------------------------
     Multipole            Electronic (a.u.)      Nuclear  (a.u.)        Total (a.u.)
 ------------------------------------------------------------------------------------

 L = 1.  Multiply by 2.5417464519 to convert [e a0] to [Debye]
 Dipole X            :          0.0000000            0.0000000            0.0000000
 Dipole Y            :          0.0000000            0.0000000            0.0000000
 Dipole Z            :         -0.6678798            0.9626806            0.2948008
 Magnitude           :                                                    0.2948008

 L = 2.  Multiply by 1.3450342976 to convert [e a0^2] to [Debye ang]
 Quadrupole XX       :         -6.4398335            0.0000000           -6.4398335
 Quadrupole XY       :          0.0000000            0.0000000            0.0000000
 Quadrupole XZ       :          0.0000000            0.0000000            0.0000000
 Quadrupole YY       :         -6.4398335            0.0000000           -6.4398335
 Quadrupole YZ       :          0.0000000            0.0000000            0.0000000
 Quadrupole ZZ       :         -9.2836058            3.8878336           -5.3957722
 Traceless XX        :          0.9479241           -1.2959445           -0.3480204
 Traceless YY        :          0.9479241           -1.2959445           -0.3480204
 Traceless ZZ        :         -1.8958482            2.5918890            0.6960409

 ------------------------------------------------------------------------------------
  ==> Computing MBIS Charges <==

  Electron Count from Grid (Expected Number): 10.00000 (10.00000)
  Difference:  0.00000

  MBIS Charges: (a.u.)
   Center  Symbol  Z      Pop.       Charge
      1       O    8    9.130743   -1.130743
      2       H    1    0.869257    0.130743

  MBIS Dipoles: [e a0]
   Center  Symbol  Z        X           Y           Z
      1       O    8   -0.000000   -0.000000   -0.111251
      2       H    1    0.000000    0.000000    0.013954

  MBIS Quadrupoles: [e a0^2]
   Center  Symbol  Z      XX        XY        XZ        YY        YZ        ZZ
      1       O    8   -5.6962    0.0000   -0.0000   -5.6962   -0.0000   -5.2201
      2       H    1   -0.7436   -0.0000    0.0000   -0.7436    0.0000   -0.7328

  MBIS Octupoles: [e a0^3]
   Center  Symbol  Z      XXX       XXY       XXZ       XYY       XYZ       XZZ       YYY       YYZ       YZZ       ZZZ
      1       O    8    0.0000   -0.0000   -0.1859    0.0000    0.0000    0.0000   -0.0000   -0.1859   -0.0000   -0.9303
      2       H    1    0.0000    0.0000   -0.0006    0.0000   -0.0000   -0.0000    0.0000   -0.0006   -0.0000   -0.0116

  MBIS Radial Moments:
   Center  Symbol  Z      [a0^2]      [a0^3]      [a0^4]
      1       O    8   16.612530   35.135331   88.099275
      2       H    1    2.220043    5.114329   13.962156

  MBIS Valence Widths: [a0]
   Center  Symbol  Z     Width
      1       O    8    0.432444
      2       H    1    0.459810

*** tstop() called on Mac.lan at Sun Aug 10 17:38:08 2025
Module time:
	user time   =       2.72 seconds =       0.05 minutes
	system time =       1.97 seconds =       0.03 minutes
	total time  =          1 seconds =       0.02 minutes
Total time:
	user time   =      11.90 seconds =       0.20 minutes
	system time =       3.79 seconds =       0.06 minutes
	total time  =          2 seconds =       0.03 minutes

    Psi4 stopped on: Sunday, 10 August 2025 05:38PM
    Psi4 wall time for execution: 0:00:01.53

*** Psi4 exiting successfully. Buy a developer a beer!
