                               Psi4 1.9.1 release

  ==> Input File <==

--------------------------------------------------------------------------
molecule {
-1 3
O           0.000000           0.000000           0.000000
N           0.000000           0.000000           1.248272
}

set {
basis              cc-pvtz
reference          uks
maxiter            500
DAMPING_PERCENTAGE 1
E_CONVERGENCE      1.0E-8
D_CONVERGENCE      1.0E-8
DIIS_MAX_VECS      400
MBIS_MAXITER       8000
guess              read
}

E, wfn = energy('b3lyp', restart_file='last_wfn', return_wfn=True)
properties('b3lyp','MBIS_CHARGES', wfn=wfn)
wfn.to_file('last_wfn')
--------------------------------------------------------------------------

    Molecular point group: c2v
  Charge       = -1
  Multiplicity = 3
  Basis Set: CC-PVTZ
    Blend: CC-PVTZ
  Basis Set: (CC-PVTZ AUX)
    Blend: CC-PVTZ-JKFIT
  @DF-UKS Final Energy:  -129.93063785459407
    Total Energy =                       -129.9306378545940674
 Dipole X            :          0.0000000            0.0000000            0.0000000
 Dipole Y            :          0.0000000            0.0000000            0.0000000
 Dipole Z            :         -0.2960868           -0.0047330           -0.3008198
 Magnitude           :                                                    0.3008198
    Molecular point group: c2v

    Geometry (in Angstrom), charge = -1, multiplicity = 3:

       Center              X                  Y                   Z               Mass
    ------------   -----------------  -----------------  -----------------  -----------------
         O            0.000000000000     0.000000000000    -0.582693907007    15.994914619570
         N            0.000000000000     0.000000000000     0.665578092993    14.003074004430

  Charge       = -1
  Multiplicity = 3
  Basis Set: CC-PVTZ
    Blend: CC-PVTZ
  Basis Set: (CC-PVTZ AUX)
    Blend: CC-PVTZ-JKFIT

    Orbital Energies [Eh]
    ---------------------

    Alpha Occupied:

       1A1   -18.837979     2A1   -14.026092     3A1    -0.782392
       4A1    -0.335005     1B1    -0.123131     1B2    -0.123131
       5A1    -0.100124     2B1     0.130572     2B2     0.130572

    Alpha Virtual:

       6A1     0.504739     3B2     0.726715     3B1     0.726715
       7A1     0.762293     8A1     0.792223     9A1     0.876669
       4B2     0.898880     4B1     0.898880     1A2     1.284611
      10A1     1.284612     5B1     1.436421     5B2     1.436421
      11A1     1.499102    12A1     1.849326     2A2     1.849327
      13A1     1.914395     6B2     2.296533     6B1     2.296533
      14A1     2.491577     7B1     3.181071     7B2     3.181071
      15A1     3.433121     8B1     3.857866     8B2     3.857866
       3A2     4.134623    16A1     4.134623     9B1     4.171289
       9B2     4.171289    10B1     4.410978    10B2     4.410978
      17A1     4.411886    18A1     4.528864     4A2     4.734666
      19A1     4.734667    20A1     4.970274    11B2     5.056542
      11B1     5.056542    12B1     5.427721    12B2     5.427721
      21A1     5.761762     5A2     5.761763    22A1     6.259739
      23A1     6.532574     6A2     6.532592    13B1     6.540571
      13B2     6.540571    24A1     7.037475    14B2     7.116397
      14B1     7.116397    25A1     7.612937    26A1    11.535614

    Beta Occupied:

       1A1   -18.818528     2A1   -13.998015     3A1    -0.739849
       4A1    -0.262928     5A1    -0.061692     1B1    -0.047938
       1B2    -0.047938

    Beta Virtual:

       2B1     0.297456     2B2     0.297456     6A1     0.522349
       3B2     0.776091     3B1     0.776091     7A1     0.789750
       8A1     0.820772     9A1     0.895179     4B2     0.932384
       4B1     0.932384    10A1     1.337045     1A2     1.337046
       5B1     1.467566     5B2     1.467566    11A1     1.519354
      12A1     1.890916     2A2     1.890916    13A1     1.939859
       6B2     2.326289     6B1     2.326289    14A1     2.514401
       7B1     3.259190     7B2     3.259190    15A1     3.458206
       8B1     3.906349     8B2     3.906349     3A2     4.180267
      16A1     4.180268     9B2     4.255486     9B1     4.255486
      10B1     4.450166    10B2     4.450166    17A1     4.451791
      18A1     4.555286     4A2     4.850873    19A1     4.850875
      20A1     5.005521    11B2     5.107644    11B1     5.107644
      12B1     5.473653    12B2     5.473653    21A1     5.796096
       5A2     5.796096    22A1     6.285289    13B1     6.576599
      13B2     6.576599    23A1     6.601792     6A2     6.601810
      24A1     7.060350    14B2     7.147600    14B1     7.147600
      25A1     7.645764    26A1    11.570087

    Final Occupation by Irrep:
             A1    A2    B1    B2
    DOCC [     5,    0,    1,    1 ]
    SOCC [     0,    0,    1,    1 ]
    NA   [     5,    0,    2,    2 ]
    NB   [     5,    0,    1,    1 ]

  @DF-UKS Final Energy:  -129.93063785457608

   => Energetics <=

    Nuclear Repulsion Energy =             23.7399571547867794
    One-Electron Energy =                -230.1812013815676892
    Two-Electron Energy =                  89.1972442738723430
    DFT Exchange-Correlation Energy =     -12.6866379016675275
    Empirical Dispersion Energy =           0.0000000000000000
    VV10 Nonlocal Energy =                  0.0000000000000000
    Total Energy =                       -129.9306378545760765

  UHF NO Occupations:
  HONO-2 :    1 B1 1.9986827
  HONO-1 :    2 B1 1.0000000
  HONO-0 :    2 B2 1.0000000
  LUNO+0 :    3 B2 0.0013173
  LUNO+1 :    3 B1 0.0013173
  LUNO+2 :    6 A1 0.0011557
  LUNO+3 :    7 A1 0.0002004

Computation Completed

Properties will be evaluated at   0.000000,   0.000000,   0.000000 [a0]

Properties computed using the B3LYP density matrix

 Multipole Moments:

 ------------------------------------------------------------------------------------
     Multipole            Electronic (a.u.)      Nuclear  (a.u.)        Total (a.u.)
 ------------------------------------------------------------------------------------

 L = 1.  Multiply by 2.5417464519 to convert [e a0] to [Debye]
 Dipole X            :          0.0000000            0.0000000            0.0000000
 Dipole Y            :          0.0000000            0.0000000            0.0000000
 Dipole Z            :         -0.2960868           -0.0047330           -0.3008198
 Magnitude           :                                                    0.3008198

 L = 2.  Multiply by 1.3450342976 to convert [e a0^2] to [Debye ang]
 Quadrupole XX       :         -9.5708971            0.0000000           -9.5708971
 Quadrupole XY       :          0.0000000            0.0000000            0.0000000
 Quadrupole XZ       :          0.0000000            0.0000000            0.0000000
 Quadrupole YY       :         -9.5708971            0.0000000           -9.5708971
 Quadrupole YZ       :          0.0000000            0.0000000            0.0000000
 Quadrupole ZZ       :        -32.9919467           20.7736587          -12.2182880
 Traceless XX        :          7.8070165           -6.9245529            0.8824637
 Traceless YY        :          7.8070165           -6.9245529            0.8824637
 Traceless ZZ        :        -15.6140331           13.8491058           -1.7649273

 ------------------------------------------------------------------------------------
  ==> Computing MBIS Charges <==

  Electron Count from Grid (Expected Number): 16.00000 (16.00000)
  Difference:  0.00000

  MBIS Charges: (a.u.)
   Center  Symbol  Z      Pop.       Charge
      1       O    8    8.438035   -0.438035
      2       N    7    7.561966   -0.561966

  MBIS Dipoles: [e a0]
   Center  Symbol  Z        X           Y           Z
      1       O    8   -0.000000   -0.000000    0.199483
      2       N    7    0.000000    0.000000   -0.275819

  MBIS Quadrupoles: [e a0^2]
   Center  Symbol  Z      XX        XY        XZ        YY        YZ        ZZ
      1       O    8   -4.3347    0.0000   -0.0000   -4.3347    0.0000   -4.4020
      2       N    7   -5.2362    0.0000    0.0000   -5.2362    0.0000   -5.2630

  MBIS Octupoles: [e a0^3]
   Center  Symbol  Z      XXX       XXY       XXZ       XYY       XYZ       XZZ       YYY       YYZ       YZZ       ZZZ
      1       O    8   -0.0000   -0.0000    0.2616   -0.0000    0.0000   -0.0000   -0.0000    0.2616   -0.0000    0.1880
      2       N    7   -0.0000   -0.0000   -0.3821   -0.0000   -0.0000   -0.0000    0.0000   -0.3821    0.0000    0.1203

  MBIS Radial Moments:
   Center  Symbol  Z      [a0^2]      [a0^3]      [a0^4]
      1       O    8   13.071362   25.787533   60.860223
      2       N    7   15.735457   36.105636   98.038716

  MBIS Valence Widths: [a0]
   Center  Symbol  Z     Width
      1       O    8    0.401324
      2       N    7    0.474655

*** tstop() called on Mac.lan at Sun Aug 10 17:46:47 2025
Module time:
	user time   =       4.15 seconds =       0.07 minutes
	system time =       2.18 seconds =       0.04 minutes
	total time  =          1 seconds =       0.02 minutes
Total time:
	user time   =      17.65 seconds =       0.29 minutes
	system time =       4.39 seconds =       0.07 minutes
	total time  =          2 seconds =       0.03 minutes

    Psi4 stopped on: Sunday, 10 August 2025 05:46PM
    Psi4 wall time for execution: 0:00:02.13

*** Psi4 exiting successfully. Buy a developer a beer!
