                               Psi4 1.9.1 release

  ==> Input File <==

--------------------------------------------------------------------------
molecule {
-1 1
N           0.000000           0.000000           0.000000
C           0.000000           0.000000           1.536045
}

set {
basis              cc-pvtz
reference          uks
maxiter            500
DAMPING_PERCENTAGE 1
E_CONVERGENCE      1.0E-8
D_CONVERGENCE      1.0E-8
DIIS_MAX_VECS      400
MBIS_MAXITER       8000
guess              read
}

E, wfn = energy('b3lyp', restart_file='last_wfn', return_wfn=True)
properties('b3lyp','MBIS_CHARGES', wfn=wfn)
wfn.to_file('last_wfn')
--------------------------------------------------------------------------

    Molecular point group: c2v
  Charge       = -1
  Multiplicity = 1
  Basis Set: CC-PVTZ
    Blend: CC-PVTZ
  Basis Set: (CC-PVTZ AUX)
    Blend: CC-PVTZ-JKFIT
  @DF-UKS Final Energy:   -92.75205604802450
    Total Energy =                        -92.7520560480244995
 Dipole X            :          0.0000000            0.0000000            0.0000000
 Dipole Y            :          0.0000000            0.0000000            0.0000000
 Dipole Z            :         -0.1044880            0.0020589           -0.1024292
 Magnitude           :                                                    0.1024292
    Molecular point group: c2v

    Geometry (in Angstrom), charge = -1, multiplicity = 1:

       Center              X                  Y                   Z               Mass
    ------------   -----------------  -----------------  -----------------  -----------------
         N            0.000000000000     0.000000000000    -0.708860036966    14.003074004430
         C            0.000000000000     0.000000000000     0.827184963034    12.000000000000

  Charge       = -1
  Multiplicity = 1
  Basis Set: CC-PVTZ
    Blend: CC-PVTZ
  Basis Set: (CC-PVTZ AUX)
    Blend: CC-PVTZ-JKFIT

    Orbital Energies [Eh]
    ---------------------

    Alpha Occupied:

       1A1   -14.076150     2A1    -9.983140     3A1    -0.492275
       4A1    -0.200320     5A1    -0.022859     1B1    -0.006520
       1B2    -0.006520

    Alpha Virtual:

       2B2     0.212093     2B1     0.212093     6A1     0.387836
       3B1     0.561893     3B2     0.561893     7A1     0.589858
       8A1     0.601175     9A1     0.718946     4B1     0.769252
       4B2     0.769252     1A2     0.929852    10A1     0.929852
       5B2     1.029083     5B1     1.029083    11A1     1.155449
      12A1     1.345075    13A1     1.383500     2A2     1.383500
       6B2     1.677514     6B1     1.677514    14A1     1.879096
       7B1     2.279065     7B2     2.279065    15A1     2.500847
       8B2     2.942033     8B1     2.942033     9B1     2.961214
       9B2     2.961214     3A2     2.962592    16A1     2.962593
      17A1     3.116492     4A2     3.245208    18A1     3.245209
      10B2     3.259741    10B1     3.259741    19A1     3.453060
      11B2     3.515050    11B1     3.515050    20A1     3.535927
      12B1     4.194295    12B2     4.194295    21A1     4.345820
       5A2     4.345821    22A1     4.494298    13B1     4.735637
      13B2     4.735637    23A1     4.778749     6A2     4.778759
      24A1     5.089386    14B1     5.213200    14B2     5.213200
      25A1     5.824755    26A1     7.668944

    Beta Occupied:

       1A1   -14.076150     2A1    -9.983140     3A1    -0.492275
       4A1    -0.200320     5A1    -0.022859     1B1    -0.006520
       1B2    -0.006520

    Beta Virtual:

       2B2     0.212093     2B1     0.212093     6A1     0.387836
       3B1     0.561893     3B2     0.561893     7A1     0.589858
       8A1     0.601175     9A1     0.718946     4B1     0.769252
       4B2     0.769252     1A2     0.929852    10A1     0.929852
       5B2     1.029083     5B1     1.029083    11A1     1.155449
      12A1     1.345075    13A1     1.383500     2A2     1.383500
       6B2     1.677514     6B1     1.677514    14A1     1.879096
       7B1     2.279065     7B2     2.279065    15A1     2.500847
       8B2     2.942033     8B1     2.942033     9B1     2.961214
       9B2     2.961214     3A2     2.962592    16A1     2.962593
      17A1     3.116492     4A2     3.245208    18A1     3.245209
      10B2     3.259741    10B1     3.259741    19A1     3.453060
      11B2     3.515050    11B1     3.515050    20A1     3.535927
      12B1     4.194295    12B2     4.194295    21A1     4.345820
       5A2     4.345821    22A1     4.494298    13B1     4.735637
      13B2     4.735637    23A1     4.778749     6A2     4.778759
      24A1     5.089386    14B1     5.213200    14B2     5.213200
      25A1     5.824755    26A1     7.668944

    Final Occupation by Irrep:
             A1    A2    B1    B2
    DOCC [     5,    0,    1,    1 ]
    SOCC [     0,    0,    0,    0 ]
    NA   [     5,    0,    1,    1 ]
    NB   [     5,    0,    1,    1 ]

  @DF-UKS Final Energy:   -92.75205604794525

   => Energetics <=

    Nuclear Repulsion Energy =             14.4692654499965805
    One-Electron Energy =                -157.7433622063003327
    Two-Electron Energy =                  60.4067070908453658
    DFT Exchange-Correlation Energy =      -9.8846663824868521
    Empirical Dispersion Energy =           0.0000000000000000
    VV10 Nonlocal Energy =                  0.0000000000000000
    Total Energy =                        -92.7520560479452314

  UHF NO Occupations:
  HONO-2 :    1 B2 2.0000000
  HONO-1 :    4 A1 2.0000000
  HONO-0 :    5 A1 2.0000000
  LUNO+0 :    6 A1 0.0000000
  LUNO+1 :    7 A1 0.0000000
  LUNO+2 :    8 A1 0.0000000
  LUNO+3 :    9 A1 0.0000000

Computation Completed

Properties will be evaluated at   0.000000,   0.000000,   0.000000 [a0]

Properties computed using the B3LYP density matrix

 Multipole Moments:

 ------------------------------------------------------------------------------------
     Multipole            Electronic (a.u.)      Nuclear  (a.u.)        Total (a.u.)
 ------------------------------------------------------------------------------------

 L = 1.  Multiply by 2.5417464519 to convert [e a0] to [Debye]
 Dipole X            :          0.0000000            0.0000000            0.0000000
 Dipole Y            :          0.0000000            0.0000000            0.0000000
 Dipole Z            :         -0.1044880            0.0020589           -0.1024291
 Magnitude           :                                                    0.1024291

 L = 2.  Multiply by 1.3450342976 to convert [e a0^2] to [Debye ang]
 Quadrupole XX       :        -10.9947800            0.0000000          -10.9947800
 Quadrupole XY       :          0.0000000            0.0000000            0.0000000
 Quadrupole XZ       :          0.0000000            0.0000000            0.0000000
 Quadrupole YY       :        -10.9947800            0.0000000          -10.9947800
 Quadrupole YZ       :          0.0000000            0.0000000            0.0000000
 Quadrupole ZZ       :        -41.8290909           27.2214689          -14.6076220
 Traceless XX        :         10.2781036           -9.0738230            1.2042807
 Traceless YY        :         10.2781036           -9.0738230            1.2042807
 Traceless ZZ        :        -20.5562073           18.1476459           -2.4085614

 ------------------------------------------------------------------------------------
  ==> Computing MBIS Charges <==

  Electron Count from Grid (Expected Number): 14.00000 (14.00000)
  Difference: -0.00000

  MBIS Charges: (a.u.)
   Center  Symbol  Z      Pop.       Charge
      1       N    7    7.565284   -0.565284
      2       C    6    6.434716   -0.434716

  MBIS Dipoles: [e a0]
   Center  Symbol  Z        X           Y           Z
      1       N    7   -0.000000    0.000000    0.016694
      2       C    6   -0.000000    0.000000   -0.196823

  MBIS Quadrupoles: [e a0^2]
   Center  Symbol  Z      XX        XY        XZ        YY        YZ        ZZ
      1       N    7   -5.2247   -0.0000   -0.0000   -5.2247   -0.0000   -5.4823
      2       C    6   -5.7701   -0.0000   -0.0000   -5.7701    0.0000   -6.3888

  MBIS Octupoles: [e a0^3]
   Center  Symbol  Z      XXX       XXY       XXZ       XYY       XYZ       XZZ       YYY       YYZ       YZZ       ZZZ
      1       N    7    0.0000   -0.0000   -0.1318    0.0000   -0.0000   -0.0000   -0.0000   -0.1318    0.0000   -0.1883
      2       C    6   -0.0000    0.0000   -0.0179   -0.0000    0.0000    0.0000    0.0000   -0.0179    0.0000   -0.2262

  MBIS Radial Moments:
   Center  Symbol  Z      [a0^2]      [a0^3]      [a0^4]
      1       N    7   15.931622   36.725489   100.471796
      2       C    6   17.928956   48.213666   152.573701

  MBIS Valence Widths: [a0]
   Center  Symbol  Z     Width
      1       N    7    0.477961
      2       C    6    0.567674

*** tstop() called on Mac.lan at Sun Aug 10 17:40:58 2025
Module time:
	user time   =       4.10 seconds =       0.07 minutes
	system time =       1.37 seconds =       0.02 minutes
	total time  =          0 seconds =       0.00 minutes
Total time:
	user time   =      22.52 seconds =       0.38 minutes
	system time =       3.56 seconds =       0.06 minutes
	total time  =          2 seconds =       0.03 minutes

    Psi4 stopped on: Sunday, 10 August 2025 05:40PM
    Psi4 wall time for execution: 0:00:02.55

*** Psi4 exiting successfully. Buy a developer a beer!
