                               Psi4 1.9.1 release

  ==> Input File <==

--------------------------------------------------------------------------
molecule {
-1 3
C           0.000000           0.000000           0.000000
H           0.000000           0.000000           1.618881
}

set {
basis              cc-pvtz
reference          uks
maxiter            500
DAMPING_PERCENTAGE 1
E_CONVERGENCE      1.0E-8
D_CONVERGENCE      1.0E-8
DIIS_MAX_VECS      400
MBIS_MAXITER       8000
guess              read
}

E, wfn = energy('b3lyp', restart_file='last_wfn', return_wfn=True)
properties('b3lyp','MBIS_CHARGES', wfn=wfn)
wfn.to_file('last_wfn')
--------------------------------------------------------------------------

    Molecular point group: c2v
  Charge       = -1
  Multiplicity = 3
  Basis Set: CC-PVTZ
    Blend: CC-PVTZ
  Basis Set: (CC-PVTZ AUX)
    Blend: CC-PVTZ-JKFIT
  @DF-UKS Final Energy:   -38.49238745980509
    Total Energy =                        -38.4923874598050872
 Dipole X            :          0.0000000            0.0000000            0.0000000
 Dipole Y            :          0.0000000            0.0000000            0.0000000
 Dipole Z            :         -1.8811219            1.4000664           -0.4810556
 Magnitude           :                                                    0.4810556
    Molecular point group: c2v

    Geometry (in Angstrom), charge = -1, multiplicity = 3:

       Center              X                  Y                   Z               Mass
    ------------   -----------------  -----------------  -----------------  -----------------
         C            0.000000000000     0.000000000000    -0.125428255066    12.000000000000
         H            0.000000000000     0.000000000000     1.493452744934     1.007825032230

  Charge       = -1
  Multiplicity = 3
  Basis Set: CC-PVTZ
    Blend: CC-PVTZ
  Basis Set: (CC-PVTZ AUX)
    Blend: CC-PVTZ-JKFIT

    Orbital Energies [Eh]
    ---------------------

    Alpha Occupied:

       1A1    -9.937724     2A1    -0.270499     3A1     0.000301
       1B2     0.061012     1B1     0.061012

    Alpha Virtual:

       4A1     0.244944     5A1     0.507990     2B2     0.554678
       2B1     0.554678     6A1     0.575195     7A1     0.716996
       3B1     0.827105     3B2     0.827105     1A2     0.946899
       8A1     0.946899     9A1     1.094662     4B2     1.180921
       4B1     1.180921    10A1     1.464020     5B1     2.230690
       5B2     2.230690    11A1     2.379142    12A1     2.729153
       6B1     2.869317     6B2     2.869317    13A1     2.907405
      14A1     2.943010     2A2     2.943010     7B2     2.964994
       7B1     2.964994    15A1     3.215983     3A2     3.215983
       8B1     3.287774     8B2     3.287774    16A1     3.528208
      17A1     3.558260     4A2     3.558268     9B1     3.883968
       9B2     3.883968    18A1     3.928622    10B1     4.148258
      10B2     4.148258    19A1     4.343027    20A1     5.391012

    Beta Occupied:

       1A1    -9.912304     2A1    -0.181158     3A1     0.016865

    Beta Virtual:

       1B1     0.224333     1B2     0.224333     4A1     0.264013
       5A1     0.508773     6A1     0.595228     2B2     0.625169
       2B1     0.625169     7A1     0.764941     3B1     0.844856
       3B2     0.844856     8A1     1.023345     1A2     1.023345
       9A1     1.113993     4B1     1.206424     4B2     1.206424
      10A1     1.474304     5B1     2.310597     5B2     2.310597
      11A1     2.398021    12A1     2.728930     6B1     2.907059
       6B2     2.907059    13A1     2.941371    14A1     3.005176
       2A2     3.005176     7B2     3.061555     7B1     3.061555
      15A1     3.333154     3A2     3.333154     8B1     3.355252
       8B2     3.355252    16A1     3.560821     4A2     3.560829
      17A1     3.562903     9B1     3.881322     9B2     3.881322
      18A1     3.969011    10B1     4.149871    10B2     4.149871
      19A1     4.339358    20A1     5.408662

    Final Occupation by Irrep:
             A1    A2    B1    B2
    DOCC [     3,    0,    0,    0 ]
    SOCC [     0,    0,    1,    1 ]
    NA   [     3,    0,    1,    1 ]
    NB   [     3,    0,    0,    0 ]

  @DF-UKS Final Energy:   -38.49238745953446

   => Energetics <=

    Nuclear Repulsion Energy =              1.9612703243907363
    One-Electron Energy =                 -57.3678271020518409
    Two-Electron Energy =                  21.5951485879847382
    DFT Exchange-Correlation Energy =      -4.6809792698581010
    Empirical Dispersion Energy =           0.0000000000000000
    VV10 Nonlocal Energy =                  0.0000000000000000
    Total Energy =                        -38.4923874595344628

  UHF NO Occupations:
  HONO-2 :    3 A1 1.9957202
  HONO-1 :    1 B2 1.0000000
  HONO-0 :    1 B1 1.0000000
  LUNO+0 :    4 A1 0.0042798
  LUNO+1 :    5 A1 0.0011004
  LUNO+2 :    6 A1 0.0000011
  LUNO+3 :    7 A1 0.0000000

Computation Completed

Properties will be evaluated at   0.000000,   0.000000,   0.000000 [a0]

Properties computed using the B3LYP density matrix

 Multipole Moments:

 ------------------------------------------------------------------------------------
     Multipole            Electronic (a.u.)      Nuclear  (a.u.)        Total (a.u.)
 ------------------------------------------------------------------------------------

 L = 1.  Multiply by 2.5417464519 to convert [e a0] to [Debye]
 Dipole X            :          0.0000000            0.0000000            0.0000000
 Dipole Y            :          0.0000000            0.0000000            0.0000000
 Dipole Z            :         -1.8811219            1.4000664           -0.4810556
 Magnitude           :                                                    0.4810556

 L = 2.  Multiply by 1.3450342976 to convert [e a0^2] to [Debye ang]
 Quadrupole XX       :         -8.2806830            0.0000000           -8.2806830
 Quadrupole XY       :          0.0000000            0.0000000            0.0000000
 Quadrupole XZ       :          0.0000000            0.0000000            0.0000000
 Quadrupole YY       :         -8.2806830            0.0000000           -8.2806830
 Quadrupole YZ       :          0.0000000            0.0000000            0.0000000
 Quadrupole ZZ       :        -19.0488779            8.3019922          -10.7468857
 Traceless XX        :          3.5893983           -2.7673307            0.8220676
 Traceless YY        :          3.5893983           -2.7673307            0.8220676
 Traceless ZZ        :         -7.1787966            5.5346615           -1.6441351

 ------------------------------------------------------------------------------------
  ==> Computing MBIS Charges <==

  Electron Count from Grid (Expected Number):  8.00000 ( 8.00000)
  Difference: -0.00000

  MBIS Charges: (a.u.)
   Center  Symbol  Z      Pop.       Charge
      1       C    6    6.712683   -0.712683
      2       H    1    1.287317   -0.287317

  MBIS Dipoles: [e a0]
   Center  Symbol  Z        X           Y           Z
      1       C    6   -0.000000   -0.000000    0.180107
      2       H    1   -0.000000    0.000000   -0.019216

  MBIS Quadrupoles: [e a0^2]
   Center  Symbol  Z      XX        XY        XZ        YY        YZ        ZZ
      1       C    6   -6.7313   -0.0000    0.0000   -6.7313    0.0000   -6.6392
      2       H    1   -1.5494   -0.0000   -0.0000   -1.5494   -0.0000   -1.5853

  MBIS Octupoles: [e a0^3]
   Center  Symbol  Z      XXX       XXY       XXZ       XYY       XYZ       XZZ       YYY       YYZ       YZZ       ZZZ
      1       C    6   -0.0000   -0.0000    0.1175   -0.0000    0.0000   -0.0000   -0.0000    0.1175   -0.0000   -0.7595
      2       H    1    0.0000    0.0000   -0.1103    0.0000   -0.0000   -0.0000   -0.0000   -0.1103   -0.0000   -0.1651

  MBIS Radial Moments:
   Center  Symbol  Z      [a0^2]      [a0^3]      [a0^4]
      1       C    6   20.101905   56.101906   184.991447
      2       H    1    4.684013   12.812770   41.233283

  MBIS Valence Widths: [a0]
   Center  Symbol  Z     Width
      1       C    6    0.583742
      2       H    1    0.549278

*** tstop() called on Mac.lan at Sun Aug 10 17:36:28 2025
Module time:
	user time   =       3.69 seconds =       0.06 minutes
	system time =       1.07 seconds =       0.02 minutes
	total time  =          0 seconds =       0.00 minutes
Total time:
	user time   =      15.20 seconds =       0.25 minutes
	system time =       2.88 seconds =       0.05 minutes
	total time  =          2 seconds =       0.03 minutes

    Psi4 stopped on: Sunday, 10 August 2025 05:36PM
    Psi4 wall time for execution: 0:00:01.77

*** Psi4 exiting successfully. Buy a developer a beer!
