                               Psi4 1.9.1 release

  ==> Input File <==

--------------------------------------------------------------------------
molecule {
-1 3
C           0.000000           0.000000           0.000000
H           0.000000           0.000000           0.970389
}

set {
basis              cc-pvtz
reference          uks
maxiter            500
DAMPING_PERCENTAGE 1
E_CONVERGENCE      1.0E-8
D_CONVERGENCE      1.0E-8
DIIS_MAX_VECS      400
MBIS_MAXITER       8000
guess              read
}

E, wfn = energy('b3lyp', restart_file='last_wfn', return_wfn=True)
properties('b3lyp','MBIS_CHARGES', wfn=wfn)
wfn.to_file('last_wfn')
--------------------------------------------------------------------------

    Molecular point group: c2v
  Charge       = -1
  Multiplicity = 3
  Basis Set: CC-PVTZ
    Blend: CC-PVTZ
  Basis Set: (CC-PVTZ AUX)
    Blend: CC-PVTZ-JKFIT
  @DF-UKS Final Energy:   -38.50820196877978
    Total Energy =                        -38.5082019687797867
 Dipole X            :          0.0000000            0.0000000            0.0000000
 Dipole Y            :          0.0000000            0.0000000            0.0000000
 Dipole Z            :         -0.1678702            0.8392272            0.6713571
 Magnitude           :                                                    0.6713571
    Molecular point group: c2v

    Geometry (in Angstrom), charge = -1, multiplicity = 3:

       Center              X                  Y                   Z               Mass
    ------------   -----------------  -----------------  -----------------  -----------------
         C            0.000000000000     0.000000000000    -0.075184154367    12.000000000000
         H            0.000000000000     0.000000000000     0.895204845633     1.007825032230

  Charge       = -1
  Multiplicity = 3
  Basis Set: CC-PVTZ
    Blend: CC-PVTZ
  Basis Set: (CC-PVTZ AUX)
    Blend: CC-PVTZ-JKFIT

    Orbital Energies [Eh]
    ---------------------

    Alpha Occupied:

       1A1    -9.851085     2A1    -0.337427     3A1     0.017860
       1B1     0.092036     1B2     0.092036

    Alpha Virtual:

       4A1     0.298310     5A1     0.542814     2B2     0.577917
       2B1     0.577917     6A1     0.643508     7A1     0.790667
       3B2     0.906240     3B1     0.906240     1A2     0.969001
       8A1     0.969001     9A1     1.277328     4B1     1.354832
       4B2     1.354832    10A1     1.921908    11A1     2.278378
       5B1     2.306968     5B2     2.306968    12A1     2.512276
      13A1     2.886362     2A2     2.886362     6B1     3.000518
       6B2     3.000518     7B1     3.023319     7B2     3.023319
      14A1     3.270241     3A2     3.270241    15A1     3.331802
       8B1     3.393214     8B2     3.393214    16A1     3.825856
      17A1     4.055504     4A2     4.055504     9B1     4.207432
       9B2     4.207432    18A1     5.299345    10B1     5.409846
      10B2     5.409846    19A1     5.526999    20A1    10.239749

    Beta Occupied:

       1A1    -9.828342     2A1    -0.270901     3A1     0.056941

    Beta Virtual:

       1B1     0.247046     1B2     0.247046     4A1     0.303617
       5A1     0.560570     2B2     0.648038     2B1     0.648038
       6A1     0.678235     7A1     0.813459     3B2     0.939571
       3B1     0.939571     1A2     1.045540     8A1     1.045540
       9A1     1.299674     4B1     1.377810     4B2     1.377810
      10A1     1.950775    11A1     2.299388     5B1     2.386236
       5B2     2.386236    12A1     2.549307    13A1     2.937126
       2A2     2.937126     6B1     3.065904     6B2     3.065904
       7B1     3.095733     7B2     3.095733    14A1     3.365536
       3A2     3.383874    15A1     3.383875     8B1     3.433414
       8B2     3.433414    16A1     3.848503    17A1     4.082851
       4A2     4.082852     9B1     4.215172     9B2     4.215172
      18A1     5.313955    10B1     5.438610    10B2     5.438610
      19A1     5.540059    20A1    10.266033

    Final Occupation by Irrep:
             A1    A2    B1    B2
    DOCC [     3,    0,    0,    0 ]
    SOCC [     0,    0,    1,    1 ]
    NA   [     3,    0,    1,    1 ]
    NB   [     3,    0,    0,    0 ]

  @DF-UKS Final Energy:   -38.50820196830981

   => Energetics <=

    Nuclear Repulsion Energy =              3.2719489442069110
    One-Electron Energy =                 -60.0609901274419258
    Two-Electron Energy =                  23.0962017167391451
    DFT Exchange-Correlation Energy =      -4.8153625018139410
    Empirical Dispersion Energy =           0.0000000000000000
    VV10 Nonlocal Energy =                  0.0000000000000000
    Total Energy =                        -38.5082019683098125

  UHF NO Occupations:
  HONO-2 :    3 A1 1.9977499
  HONO-1 :    1 B2 1.0000000
  HONO-0 :    1 B1 1.0000000
  LUNO+0 :    4 A1 0.0022501
  LUNO+1 :    5 A1 0.0002763
  LUNO+2 :    6 A1 0.0000011
  LUNO+3 :    7 A1 0.0000000

Computation Completed

Properties will be evaluated at   0.000000,   0.000000,   0.000000 [a0]

Properties computed using the B3LYP density matrix

 Multipole Moments:

 ------------------------------------------------------------------------------------
     Multipole            Electronic (a.u.)      Nuclear  (a.u.)        Total (a.u.)
 ------------------------------------------------------------------------------------

 L = 1.  Multiply by 2.5417464519 to convert [e a0] to [Debye]
 Dipole X            :          0.0000000            0.0000000            0.0000000
 Dipole Y            :          0.0000000            0.0000000            0.0000000
 Dipole Z            :         -0.1678702            0.8392272            0.6713571
 Magnitude           :                                                    0.6713571

 L = 2.  Multiply by 1.3450342976 to convert [e a0^2] to [Debye ang]
 Quadrupole XX       :         -7.8934390            0.0000000           -7.8934390
 Quadrupole XY       :          0.0000000            0.0000000            0.0000000
 Quadrupole XZ       :          0.0000000            0.0000000            0.0000000
 Quadrupole YY       :         -7.8934390            0.0000000           -7.8934390
 Quadrupole YZ       :          0.0000000            0.0000000            0.0000000
 Quadrupole ZZ       :        -11.1646173            2.9829378           -8.1816795
 Traceless XX        :          1.0903928           -0.9943126            0.0960802
 Traceless YY        :          1.0903928           -0.9943126            0.0960802
 Traceless ZZ        :         -2.1807855            1.9886252           -0.1921603

 ------------------------------------------------------------------------------------
  ==> Computing MBIS Charges <==

  Electron Count from Grid (Expected Number):  8.00000 ( 8.00000)
  Difference:  0.00000

  MBIS Charges: (a.u.)
   Center  Symbol  Z      Pop.       Charge
      1       C    6    7.129354   -1.129354
      2       H    1    0.870646    0.129354

  MBIS Dipoles: [e a0]
   Center  Symbol  Z        X           Y           Z
      1       C    6    0.000000   -0.000000    0.273889
      2       H    1    0.000000   -0.000000    0.018186

  MBIS Quadrupoles: [e a0^2]
   Center  Symbol  Z      XX        XY        XZ        YY        YZ        ZZ
      1       C    6   -7.4404    0.0000    0.0000   -7.4404   -0.0000   -8.0315
      2       H    1   -0.4530    0.0000    0.0000   -0.4530    0.0000   -0.4812

  MBIS Octupoles: [e a0^3]
   Center  Symbol  Z      XXX       XXY       XXZ       XYY       XYZ       XZZ       YYY       YYZ       YZZ       ZZZ
      1       C    6   -0.0000    0.0000    0.5642   -0.0000   -0.0000   -0.0000    0.0000    0.5642    0.0000    0.1471
      2       H    1   -0.0000    0.0000   -0.0080    0.0000    0.0000    0.0000   -0.0000   -0.0080    0.0000   -0.0391

  MBIS Radial Moments:
   Center  Symbol  Z      [a0^2]      [a0^3]      [a0^4]
      1       C    6   22.912327   65.472619   219.090171
      2       H    1    1.387323    2.528089    5.539872

  MBIS Valence Widths: [a0]
   Center  Symbol  Z     Width
      1       C    6    0.598830
      2       H    1    0.365306

*** tstop() called on Mac.lan at Sun Aug 10 17:34:49 2025
Module time:
	user time   =       2.89 seconds =       0.05 minutes
	system time =       2.43 seconds =       0.04 minutes
	total time  =          1 seconds =       0.02 minutes
Total time:
	user time   =      11.68 seconds =       0.19 minutes
	system time =       4.81 seconds =       0.08 minutes
	total time  =          2 seconds =       0.03 minutes

    Psi4 stopped on: Sunday, 10 August 2025 05:34PM
    Psi4 wall time for execution: 0:00:01.60

*** Psi4 exiting successfully. Buy a developer a beer!
