                               Psi4 1.9.1 release

  ==> Input File <==

--------------------------------------------------------------------------
molecule {
-1 2
N           0.000000           0.000000           0.000000
N           0.000000           0.000000           1.141216
}

set {
basis              cc-pvtz
reference          uks
maxiter            500
DAMPING_PERCENTAGE 1
E_CONVERGENCE      1.0E-8
D_CONVERGENCE      1.0E-8
DIIS_MAX_VECS      400
MBIS_MAXITER       8000
guess              read
}

E, wfn = energy('b3lyp', restart_file='last_wfn', return_wfn=True)
properties('b3lyp','MBIS_CHARGES', wfn=wfn)
wfn.to_file('last_wfn')
--------------------------------------------------------------------------

    Molecular point group: d2h
  Charge       = -1
  Multiplicity = 2
  Basis Set: CC-PVTZ
    Blend: CC-PVTZ
  Basis Set: (CC-PVTZ AUX)
    Blend: CC-PVTZ-JKFIT
  @DF-UKS Final Energy:  -109.47926409392775
    Total Energy =                       -109.4792640939277533
 Dipole X            :          0.0000000            0.0000000            0.0000000
 Dipole Y            :          0.0000000            0.0000000            0.0000000
 Dipole Z            :          0.0000000           -0.0000000           -0.0000000
 Magnitude           :                                                    0.0000000
    Molecular point group: d2h

    Geometry (in Angstrom), charge = -1, multiplicity = 2:

       Center              X                  Y                   Z               Mass
    ------------   -----------------  -----------------  -----------------  -----------------
         N            0.000000000000     0.000000000000    -0.570608000000    14.003074004430
         N            0.000000000000     0.000000000000     0.570608000000    14.003074004430

  Charge       = -1
  Multiplicity = 2
  Basis Set: CC-PVTZ
    Blend: CC-PVTZ
  Basis Set: (CC-PVTZ AUX)
    Blend: CC-PVTZ-JKFIT

    Orbital Energies [Eh]
    ---------------------

    Alpha Occupied:

       1Ag   -14.009404     1B1u  -14.008267     2Ag    -0.715382
       2B1u   -0.212042     1B3u   -0.109112     1B2u   -0.088012
       3Ag    -0.068344     1B2g    0.211787

    Alpha Virtual:

       1B3g    0.304617     3B1u    0.546573     2B3u    0.691413
       2B2u    0.693115     4Ag     0.696987     2B2g    0.805168
       5Ag     0.810953     2B3g    0.820934     4B1u    0.994132
       5B1u    1.144312     1B1g    1.180478     6Ag     1.181597
       3B3u    1.415543     3B2u    1.416486     1Au     1.578758
       6B1u    1.580356     3B2g    1.997552     3B3g    2.000880
       7Ag     2.011606     7B1u    2.183512     4B3u    3.100630
       4B2u    3.111324     8Ag     3.269311     4B2g    3.406997
       4B3g    3.415655     8B1u    3.754473     2B1g    3.826176
       9Ag     3.827158     5B2u    3.940735     5B3u    3.944081
       6B3u    3.992072     6B2u    3.992305    10Ag     4.288784
       5B2g    4.411858     5B3g    4.412083     3B1g    4.717662
      11Ag     4.720454     2Au     4.841236     9B1u    4.843734
       6B2g    4.881026    10B1u    4.886855     6B3g    4.887372
       3Au     5.196624    11B1u    5.197870     7B3u    5.310312
       7B2u    5.311949    12Ag     5.541484    12B1u    5.941580
      13Ag     6.580812     7B3g    6.602734     7B2g    6.603499
      13B1u   14.841905

    Beta Occupied:

       1Ag   -13.999245     1B1u  -13.998037     2Ag    -0.697389
       2B1u   -0.177819     1B2u   -0.079497     3Ag    -0.051103
       1B3u   -0.046954

    Beta Virtual:

       1B3g    0.316020     1B2g    0.347960     3B1u    0.553798
       2B2u    0.697088     4Ag     0.702227     2B3u    0.716701
       5Ag     0.820706     2B3g    0.828118     2B2g    0.849750
       4B1u    1.009446     5B1u    1.161806     1B1g    1.197626
       6Ag     1.197874     3B2u    1.418661     3B3u    1.443989
       1Au     1.608130     6B1u    1.608255     3B3g    2.004480
       7Ag     2.021636     3B2g    2.026855     7B1u    2.194397
       4B2u    3.119272     4B3u    3.149079     8Ag     3.278005
       4B3g    3.424382     4B2g    3.456004     8B1u    3.771750
       2B1g    3.840804     9Ag     3.841109     5B2u    3.943012
       5B3u    3.967954     6B2u    4.019996     6B3u    4.020241
      10Ag     4.300224     5B3g    4.443922     5B2g    4.443941
       3B1g    4.760328    11Ag     4.760462     9B1u    4.881671
       2Au     4.884944     6B3g    4.890894    10B1u    4.903969
       6B2g    4.917788     3Au     5.218093    11B1u    5.218920
       7B2u    5.315514     7B3u    5.344587    12Ag     5.559985
      12B1u    5.954255    13Ag     6.593519     7B3g    6.606270
       7B2g    6.633662    13B1u   14.856611

    Final Occupation by Irrep:
             Ag   B1g   B2g   B3g    Au   B1u   B2u   B3u
    DOCC [     3,    0,    0,    0,    0,    2,    1,    1 ]
    SOCC [     0,    0,    1,    0,    0,    0,    0,    0 ]
    NA   [     3,    0,    1,    0,    0,    2,    1,    1 ]
    NB   [     3,    0,    0,    0,    0,    2,    1,    1 ]

  @DF-UKS Final Energy:  -109.47926409354736

   => Energetics <=

    Nuclear Repulsion Energy =             22.7211004076616518
    One-Electron Energy =                -198.1912486111150997
    Two-Electron Energy =                  77.3371873366330647
    DFT Exchange-Correlation Energy =     -11.3463032267269668
    Empirical Dispersion Energy =           0.0000000000000000
    VV10 Nonlocal Energy =                  0.0000000000000000
    Total Energy =                       -109.4792640935473571

  UHF NO Occupations:
  HONO-2 :    2B1u 1.9996831
  HONO-1 :    1B3u 1.9992095
  HONO-0 :    1B2g 1.0000000
  LUNO+0 :    2B3u 0.0007905
  LUNO+1 :    3B1u 0.0003169
  LUNO+2 :    4 Ag 0.0001635
  LUNO+3 :    2B2u 0.0000292

Computation Completed

Properties will be evaluated at   0.000000,   0.000000,   0.000000 [a0]

Properties computed using the B3LYP density matrix

 Multipole Moments:

 ------------------------------------------------------------------------------------
     Multipole            Electronic (a.u.)      Nuclear  (a.u.)        Total (a.u.)
 ------------------------------------------------------------------------------------

 L = 1.  Multiply by 2.5417464519 to convert [e a0] to [Debye]
 Dipole X            :          0.0000000            0.0000000            0.0000000
 Dipole Y            :          0.0000000            0.0000000            0.0000000
 Dipole Z            :          0.0000000           -0.0000000           -0.0000000
 Magnitude           :                                                    0.0000000

 L = 2.  Multiply by 1.3450342976 to convert [e a0^2] to [Debye ang]
 Quadrupole XX       :        -10.3464380            0.0000000          -10.3464380
 Quadrupole XY       :          0.0000000            0.0000000            0.0000000
 Quadrupole XZ       :          0.0000000            0.0000000            0.0000000
 Quadrupole YY       :         -9.1588903            0.0000000           -9.1588903
 Quadrupole YZ       :          0.0000000            0.0000000            0.0000000
 Quadrupole ZZ       :        -29.1373932           16.2780164          -12.8593768
 Traceless XX        :          5.8678025           -5.4260055            0.4417970
 Traceless YY        :          7.0553502           -5.4260055            1.6293448
 Traceless ZZ        :        -12.9231527           10.8520110           -2.0711418

 ------------------------------------------------------------------------------------
  ==> Computing MBIS Charges <==

  Electron Count from Grid (Expected Number): 15.00000 (15.00000)
  Difference:  0.00000

  MBIS Charges: (a.u.)
   Center  Symbol  Z      Pop.       Charge
      1       N    7    7.500000   -0.500000
      2       N    7    7.500000   -0.500000

  MBIS Dipoles: [e a0]
   Center  Symbol  Z        X           Y           Z
      1       N    7   -0.000000   -0.000000    0.237665
      2       N    7   -0.000000   -0.000000   -0.237665

  MBIS Quadrupoles: [e a0^2]
   Center  Symbol  Z      XX        XY        XZ        YY        YZ        ZZ
      1       N    7   -5.1732    0.0000   -0.0000   -4.5794   -0.0000   -5.3358
      2       N    7   -5.1732    0.0000    0.0000   -4.5794    0.0000   -5.3358

  MBIS Octupoles: [e a0^3]
   Center  Symbol  Z      XXX       XXY       XXZ       XYY       XYZ       XZZ       YYY       YYZ       YZZ       ZZZ
      1       N    7   -0.0000   -0.0000    0.5186   -0.0000    0.0000    0.0000   -0.0000    0.2267   -0.0000    0.3736
      2       N    7   -0.0000   -0.0000   -0.5186   -0.0000   -0.0000    0.0000   -0.0000   -0.2267   -0.0000   -0.3736

  MBIS Radial Moments:
   Center  Symbol  Z      [a0^2]      [a0^3]      [a0^4]
      1       N    7   15.088449   34.159540   91.882341
      2       N    7   15.088449   34.159540   91.882341

  MBIS Valence Widths: [a0]
   Center  Symbol  Z     Width
      1       N    7    0.466433
      2       N    7    0.466433

*** tstop() called on Mac.lan at Sun Aug 10 17:33:28 2025
Module time:
	user time   =       3.30 seconds =       0.06 minutes
	system time =       2.30 seconds =       0.04 minutes
	total time  =          0 seconds =       0.00 minutes
Total time:
	user time   =      14.06 seconds =       0.23 minutes
	system time =       4.51 seconds =       0.08 minutes
	total time  =          2 seconds =       0.03 minutes

    Psi4 stopped on: Sunday, 10 August 2025 05:33PM
    Psi4 wall time for execution: 0:00:01.82

*** Psi4 exiting successfully. Buy a developer a beer!
