                               Psi4 1.9.1 release

  ==> Input File <==

--------------------------------------------------------------------------
molecule {
-1 3
C           0.000000           0.000000           0.000000
H           0.000000           0.000000           1.267615
}

set {
basis              cc-pvtz
reference          uks
maxiter            500
DAMPING_PERCENTAGE 1
E_CONVERGENCE      1.0E-8
D_CONVERGENCE      1.0E-8
DIIS_MAX_VECS      400
MBIS_MAXITER       8000
guess              read
}

E, wfn = energy('b3lyp', restart_file='last_wfn', return_wfn=True)
properties('b3lyp','MBIS_CHARGES', wfn=wfn)
wfn.to_file('last_wfn')
--------------------------------------------------------------------------

    Molecular point group: c2v
  Charge       = -1
  Multiplicity = 3
  Basis Set: CC-PVTZ
    Blend: CC-PVTZ
  Basis Set: (CC-PVTZ AUX)
    Blend: CC-PVTZ-JKFIT
  @DF-UKS Final Energy:   -38.52309904771442
    Total Energy =                        -38.5230990477144246
 Dipole X            :          0.0000000            0.0000000            0.0000000
 Dipole Y            :          0.0000000            0.0000000            0.0000000
 Dipole Z            :         -0.9082176            1.0962789            0.1880613
 Magnitude           :                                                    0.1880613
    Molecular point group: c2v

    Geometry (in Angstrom), charge = -1, multiplicity = 3:

       Center              X                  Y                   Z               Mass
    ------------   -----------------  -----------------  -----------------  -----------------
         C            0.000000000000     0.000000000000    -0.098212739260    12.000000000000
         H            0.000000000000     0.000000000000     1.169402260740     1.007825032230

  Charge       = -1
  Multiplicity = 3
  Basis Set: CC-PVTZ
    Blend: CC-PVTZ
  Basis Set: (CC-PVTZ AUX)
    Blend: CC-PVTZ-JKFIT

    Orbital Energies [Eh]
    ---------------------

    Alpha Occupied:

       1A1    -9.894611     2A1    -0.286864     3A1     0.004867
       1B2     0.081344     1B1     0.081344

    Alpha Virtual:

       4A1     0.286374     5A1     0.536721     2B2     0.570341
       2B1     0.570341     6A1     0.619705     7A1     0.710971
       3B1     0.857288     3B2     0.857288     8A1     0.961583
       1A2     0.961583     9A1     1.219810     4B2     1.282244
       4B1     1.282244    10A1     1.543044     5B1     2.271729
       5B2     2.271729    11A1     2.447606    12A1     2.645233
       2A2     2.881679    13A1     2.881679     6B1     2.919608
       6B2     2.919608     7B1     2.987439     7B2     2.987439
      14A1     3.129095     3A2     3.252805    15A1     3.252805
       8B1     3.387390     8B2     3.387390    16A1     3.422972
       4A2     3.748833    17A1     3.748835     9B2     4.050868
       9B1     4.050868    18A1     4.353146    10B1     4.674624
      10B2     4.674624    19A1     4.773957    20A1     7.164703

    Beta Occupied:

       1A1    -9.870808     2A1    -0.212319     3A1     0.035720

    Beta Virtual:

       1B1     0.239279     1B2     0.239279     4A1     0.296312
       5A1     0.550566     6A1     0.638308     2B2     0.641615
       2B1     0.641615     7A1     0.752200     3B1     0.882353
       3B2     0.882353     8A1     1.038055     1A2     1.038056
       9A1     1.243692     4B2     1.306829     4B1     1.306829
      10A1     1.556916     5B1     2.350884     5B2     2.350884
      11A1     2.467779    12A1     2.663640     2A2     2.931799
      13A1     2.931800     6B1     2.957857     6B2     2.957857
       7B1     3.083349     7B2     3.083349    14A1     3.162127
      15A1     3.372205     3A2     3.372205     8B1     3.442691
       8B2     3.442691    16A1     3.453993     4A2     3.763951
      17A1     3.763953     9B2     4.049093     9B1     4.049093
      18A1     4.371075    10B1     4.693372    10B2     4.693372
      19A1     4.780064    20A1     7.193097

    Final Occupation by Irrep:
             A1    A2    B1    B2
    DOCC [     3,    0,    0,    0 ]
    SOCC [     0,    0,    1,    1 ]
    NA   [     3,    0,    1,    1 ]
    NB   [     3,    0,    0,    0 ]

  @DF-UKS Final Energy:   -38.52309904795743

   => Energetics <=

    Nuclear Repulsion Energy =              2.5047536231584515
    One-Electron Energy =                 -58.5811747228733424
    Two-Electron Energy =                  22.2870190631383807
    DFT Exchange-Correlation Energy =      -4.7336970113809169
    Empirical Dispersion Energy =           0.0000000000000000
    VV10 Nonlocal Energy =                  0.0000000000000000
    Total Energy =                        -38.5230990479574302

  UHF NO Occupations:
  HONO-2 :    3 A1 1.9974975
  HONO-1 :    1 B2 1.0000000
  HONO-0 :    1 B1 1.0000000
  LUNO+0 :    4 A1 0.0025025
  LUNO+1 :    5 A1 0.0005471
  LUNO+2 :    6 A1 0.0000011
  LUNO+3 :    7 A1 0.0000000

Computation Completed

Properties will be evaluated at   0.000000,   0.000000,   0.000000 [a0]

Properties computed using the B3LYP density matrix

 Multipole Moments:

 ------------------------------------------------------------------------------------
     Multipole            Electronic (a.u.)      Nuclear  (a.u.)        Total (a.u.)
 ------------------------------------------------------------------------------------

 L = 1.  Multiply by 2.5417464519 to convert [e a0] to [Debye]
 Dipole X            :          0.0000000            0.0000000            0.0000000
 Dipole Y            :          0.0000000            0.0000000            0.0000000
 Dipole Z            :         -0.9082176            1.0962789            0.1880613
 Magnitude           :                                                    0.1880613

 L = 2.  Multiply by 1.3450342976 to convert [e a0^2] to [Debye ang]
 Quadrupole XX       :         -8.0910907            0.0000000           -8.0910907
 Quadrupole XY       :          0.0000000            0.0000000            0.0000000
 Quadrupole XZ       :          0.0000000            0.0000000            0.0000000
 Quadrupole YY       :         -8.0910907            0.0000000           -8.0910907
 Quadrupole YZ       :          0.0000000            0.0000000            0.0000000
 Quadrupole ZZ       :        -14.1752059            5.0901105           -9.0850954
 Traceless XX        :          2.0280384           -1.6967035            0.3313349
 Traceless YY        :          2.0280384           -1.6967035            0.3313349
 Traceless ZZ        :         -4.0560768            3.3934070           -0.6626698

 ------------------------------------------------------------------------------------
  ==> Computing MBIS Charges <==

  Electron Count from Grid (Expected Number):  8.00000 ( 8.00000)
  Difference:  0.00000

  MBIS Charges: (a.u.)
   Center  Symbol  Z      Pop.       Charge
      1       C    6    6.910207   -0.910207
      2       H    1    1.089793   -0.089793

  MBIS Dipoles: [e a0]
   Center  Symbol  Z        X           Y           Z
      1       C    6   -0.000000   -0.000000    0.227480
      2       H    1   -0.000000   -0.000000   -0.009919

  MBIS Quadrupoles: [e a0^2]
   Center  Symbol  Z      XX        XY        XZ        YY        YZ        ZZ
      1       C    6   -7.1061    0.0000    0.0000   -7.1061    0.0000   -7.4189
      2       H    1   -0.9850    0.0000   -0.0000   -0.9850   -0.0000   -1.0681

  MBIS Octupoles: [e a0^3]
   Center  Symbol  Z      XXX       XXY       XXZ       XYY       XYZ       XZZ       YYY       YYZ       YZZ       ZZZ
      1       C    6    0.0000   -0.0000    0.2374   -0.0000   -0.0000   -0.0000   -0.0000    0.2374   -0.0000   -0.6789
      2       H    1   -0.0000   -0.0000   -0.0867   -0.0000    0.0000   -0.0000   -0.0000   -0.0867   -0.0000   -0.2232

  MBIS Radial Moments:
   Center  Symbol  Z      [a0^2]      [a0^3]      [a0^4]
      1       C    6   21.631109   61.557201   206.813542
      2       H    1    3.038037    7.395084   21.442835

  MBIS Valence Widths: [a0]
   Center  Symbol  Z     Width
      1       C    6    0.593821
      2       H    1    0.479009

*** tstop() called on Mac.lan at Sun Aug 10 17:36:00 2025
Module time:
	user time   =       2.58 seconds =       0.04 minutes
	system time =       1.79 seconds =       0.03 minutes
	total time  =          0 seconds =       0.00 minutes
Total time:
	user time   =      12.66 seconds =       0.21 minutes
	system time =       4.15 seconds =       0.07 minutes
	total time  =          2 seconds =       0.03 minutes

    Psi4 stopped on: Sunday, 10 August 2025 05:36PM
    Psi4 wall time for execution: 0:00:01.64

*** Psi4 exiting successfully. Buy a developer a beer!
