                               Psi4 1.9.1 release

  ==> Input File <==

--------------------------------------------------------------------------
molecule {
-1 2
N           0.000000           0.000000           0.000000
N           0.000000           0.000000           1.559622
}

set {
basis              cc-pvtz
reference          uks
maxiter            500
DAMPING_PERCENTAGE 1
E_CONVERGENCE      1.0E-8
D_CONVERGENCE      1.0E-8
DIIS_MAX_VECS      400
MBIS_MAXITER       8000
guess              read
}

E, wfn = energy('b3lyp', restart_file='last_wfn', return_wfn=True)
properties('b3lyp','MBIS_CHARGES', wfn=wfn)
wfn.to_file('last_wfn')
--------------------------------------------------------------------------

    Molecular point group: d2h
  Charge       = -1
  Multiplicity = 2
  Basis Set: CC-PVTZ
    Blend: CC-PVTZ
  Basis Set: (CC-PVTZ AUX)
    Blend: CC-PVTZ-JKFIT
  @DF-UKS Final Energy:  -109.37436153219701
    Total Energy =                       -109.3743615321970140
 Dipole X            :          0.0000000            0.0000000            0.0000000
 Dipole Y            :          0.0000000            0.0000000            0.0000000
 Dipole Z            :          0.0000000           -0.0000000           -0.0000000
 Magnitude           :                                                    0.0000000
    Molecular point group: d2h

    Geometry (in Angstrom), charge = -1, multiplicity = 2:

       Center              X                  Y                   Z               Mass
    ------------   -----------------  -----------------  -----------------  -----------------
         N            0.000000000000     0.000000000000    -0.779811000000    14.003074004430
         N            0.000000000000     0.000000000000     0.779811000000    14.003074004430

  Charge       = -1
  Multiplicity = 2
  Basis Set: CC-PVTZ
    Blend: CC-PVTZ
  Basis Set: (CC-PVTZ AUX)
    Blend: CC-PVTZ-JKFIT

    Orbital Energies [Eh]
    ---------------------

    Alpha Occupied:

       1Ag   -14.084485     1B1u  -14.084376     2Ag    -0.545821
       2B1u   -0.315981     3Ag    -0.049774     1B3u   -0.049360
       1B2u   -0.018472     1B2g    0.086131

    Alpha Virtual:

       1B3g    0.180673     3B1u    0.383582     4B1u    0.681079
       2B3u    0.709433     2B2u    0.717119     4Ag     0.726627
       2B2g    0.773906     2B3g    0.785200     5Ag     0.816798
       5B1u    1.158817     1B1g    1.220663     6Ag     1.221820
       3B2u    1.227935     3B3u    1.229586     1Au     1.449086
       6B1u    1.450508     7Ag     1.753981     3B2g    1.832806
       3B3g    1.833823     7B1u    1.975274     4B3u    3.025485
       4B2u    3.038975     8Ag     3.089520     4B2g    3.195766
       4B3g    3.208291     8B1u    3.778944     5B2u    3.867341
       5B3u    3.869803     9Ag     3.925444     2B1g    3.937244
      10Ag     3.938558     6B3u    4.135802     6B2u    4.136070
       5B2g    4.219094     5B3g    4.219365     2Au     4.452923
       9B1u    4.454498     3B1g    4.680306    11Ag     4.683578
       6B2g    4.760656     6B3g    4.767823     3Au     4.823998
      10B1u    4.826826     7B3u    4.846954     7B2u    4.855042
      11B1u    4.924673    12B1u    5.218751    12Ag     5.263722
       7B2g    5.457352     7B3g    5.457747    13Ag     5.921481
      13B1u    7.566941

    Beta Occupied:

       1Ag   -14.073119     1B1u  -14.072975     2Ag    -0.519313
       2B1u   -0.279100     3Ag    -0.037468     1B2u   -0.008970
       1B3u    0.023151

    Beta Virtual:

       1B3g    0.192817     1B2g    0.227616     3B1u    0.398505
       4B1u    0.688807     2B2u    0.722280     4Ag     0.734666
       2B3u    0.743701     2B3g    0.791082     2B2g    0.811294
       5Ag     0.823216     5B1u    1.173624     3B2u    1.228780
       1B1g    1.240270     6Ag     1.240342     3B3u    1.250147
       1Au     1.475808     6B1u    1.475994     7Ag     1.766984
       3B3g    1.836683     3B2g    1.859138     7B1u    1.983061
       4B2u    3.046834     4B3u    3.076419     8Ag     3.096469
       4B3g    3.217508     4B2g    3.249669     8B1u    3.792616
       5B2u    3.870652     5B3u    3.896564     9Ag     3.933111
       2B1g    3.957455    10Ag     3.965054     6B2u    4.168643
       6B3u    4.168690     5B3g    4.252404     5B2g    4.252426
       2Au     4.478202     9B1u    4.478253    11Ag     4.727534
       3B1g    4.727598     6B3g    4.772891     6B2g    4.801503
       7B2u    4.859887    10B1u    4.865554     3Au     4.868215
       7B3u    4.890095    11B1u    4.943059    12B1u    5.233075
      12Ag     5.274398     7B3g    5.460536     7B2g    5.487206
      13Ag     5.944765    13B1u    7.582745

    Final Occupation by Irrep:
             Ag   B1g   B2g   B3g    Au   B1u   B2u   B3u
    DOCC [     3,    0,    0,    0,    0,    2,    1,    1 ]
    SOCC [     0,    0,    1,    0,    0,    0,    0,    0 ]
    NA   [     3,    0,    1,    0,    0,    2,    1,    1 ]
    NB   [     3,    0,    0,    0,    0,    2,    1,    1 ]

  @DF-UKS Final Energy:  -109.37436153078788

   => Energetics <=

    Nuclear Repulsion Energy =             16.6256203893186942
    One-Electron Energy =                -185.9632028602351284
    Two-Electron Energy =                  71.0816746682794758
    DFT Exchange-Correlation Energy =     -11.1184537281509286
    Empirical Dispersion Energy =           0.0000000000000000
    VV10 Nonlocal Energy =                  0.0000000000000000
    Total Energy =                       -109.3743615307878798

  UHF NO Occupations:
  HONO-2 :    2B1u 1.9996192
  HONO-1 :    1B3u 1.9980796
  HONO-0 :    1B2g 1.0000000
  LUNO+0 :    2B3u 0.0019204
  LUNO+1 :    3B1u 0.0003808
  LUNO+2 :    4 Ag 0.0001991
  LUNO+3 :    2B2u 0.0000584

Computation Completed

Properties will be evaluated at   0.000000,   0.000000,   0.000000 [a0]

Properties computed using the B3LYP density matrix

 Multipole Moments:

 ------------------------------------------------------------------------------------
     Multipole            Electronic (a.u.)      Nuclear  (a.u.)        Total (a.u.)
 ------------------------------------------------------------------------------------

 L = 1.  Multiply by 2.5417464519 to convert [e a0] to [Debye]
 Dipole X            :          0.0000000            0.0000000            0.0000000
 Dipole Y            :          0.0000000            0.0000000            0.0000000
 Dipole Z            :          0.0000000           -0.0000000           -0.0000000
 Magnitude           :                                                    0.0000000

 L = 2.  Multiply by 1.3450342976 to convert [e a0^2] to [Debye ang]
 Quadrupole XX       :        -10.8837263            0.0000000          -10.8837263
 Quadrupole XY       :          0.0000000            0.0000000            0.0000000
 Quadrupole XZ       :          0.0000000            0.0000000            0.0000000
 Quadrupole YY       :         -9.8822639            0.0000000           -9.8822639
 Quadrupole YZ       :          0.0000000            0.0000000            0.0000000
 Quadrupole ZZ       :        -43.6821652           30.4021631          -13.2800022
 Traceless XX        :         10.5989922          -10.1340544            0.4649378
 Traceless YY        :         11.6004546          -10.1340544            1.4664002
 Traceless ZZ        :        -22.1994468           20.2681087           -1.9313380

 ------------------------------------------------------------------------------------
  ==> Computing MBIS Charges <==

  Electron Count from Grid (Expected Number): 15.00000 (15.00000)
  Difference: -0.00000

  MBIS Charges: (a.u.)
   Center  Symbol  Z      Pop.       Charge
      1       N    7    7.500000   -0.500000
      2       N    7    7.500000   -0.500000

  MBIS Dipoles: [e a0]
   Center  Symbol  Z        X           Y           Z
      1       N    7    0.000000   -0.000000    0.101182
      2       N    7    0.000000   -0.000000   -0.101182

  MBIS Quadrupoles: [e a0^2]
   Center  Symbol  Z      XX        XY        XZ        YY        YZ        ZZ
      1       N    7   -5.4419   -0.0000    0.0000   -4.9411   -0.0000   -5.2560
      2       N    7   -5.4419   -0.0000   -0.0000   -4.9411    0.0000   -5.2560

  MBIS Octupoles: [e a0^3]
   Center  Symbol  Z      XXX       XXY       XXZ       XYY       XYZ       XZZ       YYY       YYZ       YZZ       ZZZ
      1       N    7    0.0000   -0.0000    0.0754    0.0000   -0.0000   -0.0000   -0.0000   -0.1007   -0.0000   -0.2683
      2       N    7   -0.0000   -0.0000   -0.0754    0.0000    0.0000   -0.0000   -0.0000    0.1007   -0.0000    0.2683

  MBIS Radial Moments:
   Center  Symbol  Z      [a0^2]      [a0^3]      [a0^4]
      1       N    7   15.638996   35.865931   97.339418
      2       N    7   15.638996   35.865931   97.339418

  MBIS Valence Widths: [a0]
   Center  Symbol  Z     Width
      1       N    7    0.476299
      2       N    7    0.476299

*** tstop() called on Mac.lan at Sun Aug 10 17:34:05 2025
Module time:
	user time   =       3.64 seconds =       0.06 minutes
	system time =       1.92 seconds =       0.03 minutes
	total time  =          1 seconds =       0.02 minutes
Total time:
	user time   =      15.49 seconds =       0.26 minutes
	system time =       4.07 seconds =       0.07 minutes
	total time  =          2 seconds =       0.03 minutes

    Psi4 stopped on: Sunday, 10 August 2025 05:34PM
    Psi4 wall time for execution: 0:00:01.91

*** Psi4 exiting successfully. Buy a developer a beer!
