                               Psi4 1.9.1 release

  ==> Input File <==

--------------------------------------------------------------------------
molecule {
-1 1
N           0.000000           0.000000           0.000000
C           0.000000           0.000000           1.563517
}

set {
basis              cc-pvtz
reference          uks
maxiter            500
DAMPING_PERCENTAGE 1
E_CONVERGENCE      1.0E-8
D_CONVERGENCE      1.0E-8
DIIS_MAX_VECS      400
MBIS_MAXITER       8000
guess              read
}

E, wfn = energy('b3lyp', restart_file='last_wfn', return_wfn=True)
properties('b3lyp','MBIS_CHARGES', wfn=wfn)
wfn.to_file('last_wfn')
--------------------------------------------------------------------------

    Molecular point group: c2v
  Charge       = -1
  Multiplicity = 1
  Basis Set: CC-PVTZ
    Blend: CC-PVTZ
  Basis Set: (CC-PVTZ AUX)
    Blend: CC-PVTZ-JKFIT
  @DF-UKS Final Energy:   -92.73892623459867
    Total Energy =                        -92.7389262345986793
 Dipole X            :          0.0000000            0.0000000            0.0000000
 Dipole Y            :          0.0000000            0.0000000            0.0000000
 Dipole Z            :         -0.0950978            0.0020957           -0.0930021
 Magnitude           :                                                    0.0930021
    Molecular point group: c2v

    Geometry (in Angstrom), charge = -1, multiplicity = 1:

       Center              X                  Y                   Z               Mass
    ------------   -----------------  -----------------  -----------------  -----------------
         N            0.000000000000     0.000000000000    -0.721537922663    14.003074004430
         C            0.000000000000     0.000000000000     0.841979077337    12.000000000000

  Charge       = -1
  Multiplicity = 1
  Basis Set: CC-PVTZ
    Blend: CC-PVTZ
  Basis Set: (CC-PVTZ AUX)
    Blend: CC-PVTZ-JKFIT

    Orbital Energies [Eh]
    ---------------------

    Alpha Occupied:

       1A1   -14.078997     2A1    -9.988358     3A1    -0.486205
       4A1    -0.204735     5A1    -0.022467     1B2    -0.004176
       1B1    -0.004176

    Alpha Virtual:

       2B2     0.206268     2B1     0.206268     6A1     0.382120
       3B2     0.561357     3B1     0.561357     7A1     0.581024
       8A1     0.599165     9A1     0.718103     4B2     0.768273
       4B1     0.768273     1A2     0.929654    10A1     0.929655
       5B1     1.021743     5B2     1.021743    11A1     1.152374
      12A1     1.338695    13A1     1.379369     2A2     1.379369
       6B2     1.666267     6B1     1.666267    14A1     1.863883
       7B2     2.273421     7B1     2.273421    15A1     2.502616
       8B1     2.935647     8B2     2.935647     9B1     2.959685
       9B2     2.959685     3A2     2.960188    16A1     2.960188
      17A1     3.085526     4A2     3.241420    18A1     3.241420
      10B1     3.257390    10B2     3.257390    19A1     3.477871
      11B1     3.496390    11B2     3.496390    20A1     3.523599
      12B2     4.192972    12B1     4.192972    21A1     4.327758
       5A2     4.327759    22A1     4.432987    13B2     4.699124
      13B1     4.699124    23A1     4.774244     6A2     4.774251
      24A1     5.050138    14B2     5.186196    14B1     5.186196
      25A1     5.833857    26A1     7.445324

    Beta Occupied:

       1A1   -14.078997     2A1    -9.988358     3A1    -0.486205
       4A1    -0.204735     5A1    -0.022467     1B2    -0.004176
       1B1    -0.004176

    Beta Virtual:

       2B2     0.206268     2B1     0.206268     6A1     0.382120
       3B2     0.561357     3B1     0.561357     7A1     0.581024
       8A1     0.599165     9A1     0.718103     4B2     0.768273
       4B1     0.768273     1A2     0.929654    10A1     0.929655
       5B1     1.021743     5B2     1.021743    11A1     1.152374
      12A1     1.338695    13A1     1.379369     2A2     1.379369
       6B2     1.666267     6B1     1.666267    14A1     1.863883
       7B2     2.273421     7B1     2.273421    15A1     2.502616
       8B1     2.935647     8B2     2.935647     9B1     2.959685
       9B2     2.959685     3A2     2.960188    16A1     2.960188
      17A1     3.085526     4A2     3.241420    18A1     3.241420
      10B1     3.257390    10B2     3.257390    19A1     3.477871
      11B1     3.496390    11B2     3.496390    20A1     3.523599
      12B2     4.192972    12B1     4.192972    21A1     4.327758
       5A2     4.327759    22A1     4.432987    13B2     4.699124
      13B1     4.699124    23A1     4.774244     6A2     4.774251
      24A1     5.050138    14B2     5.186196    14B1     5.186196
      25A1     5.833857    26A1     7.445324

    Final Occupation by Irrep:
             A1    A2    B1    B2
    DOCC [     5,    0,    1,    1 ]
    SOCC [     0,    0,    0,    0 ]
    NA   [     5,    0,    1,    1 ]
    NB   [     5,    0,    1,    1 ]

  @DF-UKS Final Energy:   -92.73892623451856

   => Energetics <=

    Nuclear Repulsion Energy =             14.2150311433390222
    One-Electron Energy =                -157.2125029721076430
    Two-Electron Energy =                  60.1335370805368612
    DFT Exchange-Correlation Energy =      -9.8749914862867847
    Empirical Dispersion Energy =           0.0000000000000000
    VV10 Nonlocal Energy =                  0.0000000000000000
    Total Energy =                        -92.7389262345185585

  UHF NO Occupations:
  HONO-2 :    3 A1 2.0000000
  HONO-1 :    4 A1 2.0000000
  HONO-0 :    5 A1 2.0000000
  LUNO+0 :    6 A1 0.0000000
  LUNO+1 :    7 A1 0.0000000
  LUNO+2 :    8 A1 0.0000000
  LUNO+3 :    9 A1 0.0000000

Computation Completed

Properties will be evaluated at   0.000000,   0.000000,   0.000000 [a0]

Properties computed using the B3LYP density matrix

 Multipole Moments:

 ------------------------------------------------------------------------------------
     Multipole            Electronic (a.u.)      Nuclear  (a.u.)        Total (a.u.)
 ------------------------------------------------------------------------------------

 L = 1.  Multiply by 2.5417464519 to convert [e a0] to [Debye]
 Dipole X            :          0.0000000            0.0000000            0.0000000
 Dipole Y            :          0.0000000            0.0000000            0.0000000
 Dipole Z            :         -0.0950978            0.0020957           -0.0930021
 Magnitude           :                                                    0.0930021

 L = 2.  Multiply by 1.3450342976 to convert [e a0^2] to [Debye ang]
 Quadrupole XX       :        -11.0335191            0.0000000          -11.0335191
 Quadrupole XY       :          0.0000000            0.0000000            0.0000000
 Quadrupole XZ       :          0.0000000            0.0000000            0.0000000
 Quadrupole YY       :        -11.0335191            0.0000000          -11.0335191
 Quadrupole YZ       :          0.0000000            0.0000000            0.0000000
 Quadrupole ZZ       :        -42.8574874           28.2038823          -14.6536052
 Traceless XX        :         10.6079894           -9.4012941            1.2066954
 Traceless YY        :         10.6079894           -9.4012941            1.2066954
 Traceless ZZ        :        -21.2159789           18.8025882           -2.4133907

 ------------------------------------------------------------------------------------
  ==> Computing MBIS Charges <==

  Electron Count from Grid (Expected Number): 14.00000 (14.00000)
  Difference: -0.00000

  MBIS Charges: (a.u.)
   Center  Symbol  Z      Pop.       Charge
      1       N    7    7.567791   -0.567791
      2       C    6    6.432209   -0.432209

  MBIS Dipoles: [e a0]
   Center  Symbol  Z        X           Y           Z
      1       N    7   -0.000000   -0.000000    0.009769
      2       C    6    0.000000    0.000000   -0.189269

  MBIS Quadrupoles: [e a0^2]
   Center  Symbol  Z      XX        XY        XZ        YY        YZ        ZZ
      1       N    7   -5.2492    0.0000   -0.0000   -5.2492   -0.0000   -5.4873
      2       C    6   -5.7843    0.0000    0.0000   -5.7843    0.0000   -6.3875

  MBIS Octupoles: [e a0^3]
   Center  Symbol  Z      XXX       XXY       XXZ       XYY       XYZ       XZZ       YYY       YYZ       YZZ       ZZZ
      1       N    7   -0.0000   -0.0000   -0.1520    0.0000    0.0000   -0.0000    0.0000   -0.1520    0.0000   -0.2352
      2       C    6   -0.0000   -0.0000    0.0055    0.0000    0.0000   -0.0000    0.0000    0.0055    0.0000   -0.1785

  MBIS Radial Moments:
   Center  Symbol  Z      [a0^2]      [a0^3]      [a0^4]
      1       N    7   15.985786   36.902053   101.067127
      2       C    6   17.956118   48.340155   153.142312

  MBIS Valence Widths: [a0]
   Center  Symbol  Z     Width
      1       N    7    0.478732
      2       C    6    0.568301

*** tstop() called on Mac.lan at Sun Aug 10 17:41:01 2025
Module time:
	user time   =       3.55 seconds =       0.06 minutes
	system time =       2.09 seconds =       0.03 minutes
	total time  =          1 seconds =       0.02 minutes
Total time:
	user time   =      17.74 seconds =       0.30 minutes
	system time =       4.49 seconds =       0.07 minutes
	total time  =          2 seconds =       0.03 minutes

    Psi4 stopped on: Sunday, 10 August 2025 05:41PM
    Psi4 wall time for execution: 0:00:02.15

*** Psi4 exiting successfully. Buy a developer a beer!
