                               Psi4 1.9.1 release

  ==> Input File <==

--------------------------------------------------------------------------
molecule {
-1 2
O           0.000000           0.000000           0.000000
C           0.000000           0.000000           1.661665
}

set {
basis              cc-pvtz
reference          uks
maxiter            500
DAMPING_PERCENTAGE 1
E_CONVERGENCE      1.0E-8
D_CONVERGENCE      1.0E-8
DIIS_MAX_VECS      400
MBIS_MAXITER       8000
guess              read
}

E, wfn = energy('b3lyp', restart_file='last_wfn', return_wfn=True)
properties('b3lyp','MBIS_CHARGES', wfn=wfn)
wfn.to_file('last_wfn')
--------------------------------------------------------------------------

    Molecular point group: c2v
  Charge       = -1
  Multiplicity = 2
  Basis Set: CC-PVTZ
    Blend: CC-PVTZ
  Basis Set: (CC-PVTZ AUX)
    Blend: CC-PVTZ-JKFIT
  @DF-UKS Final Energy:  -113.17971494527733
    Total Energy =                       -113.1797149452773255
 Dipole X            :          0.0000000            0.0000000            0.0000000
 Dipole Y            :          0.0000000            0.0000000            0.0000000
 Dipole Z            :         -0.1633922           -0.0034225           -0.1668146
 Magnitude           :                                                    0.1668146
    Molecular point group: c2v

    Geometry (in Angstrom), charge = -1, multiplicity = 2:

       Center              X                  Y                   Z               Mass
    ------------   -----------------  -----------------  -----------------  -----------------
         O            0.000000000000     0.000000000000    -0.712271506128    15.994914619570
         C            0.000000000000     0.000000000000     0.949393493872    12.000000000000

  Charge       = -1
  Multiplicity = 2
  Basis Set: CC-PVTZ
    Blend: CC-PVTZ
  Basis Set: (CC-PVTZ AUX)
    Blend: CC-PVTZ-JKFIT

    Orbital Energies [Eh]
    ---------------------

    Alpha Occupied:

       1A1   -18.850175     2A1   -10.003722     3A1    -0.610577
       4A1    -0.265917     1B1    -0.045143     5A1    -0.044706
       1B2    -0.020473     2B1     0.075736

    Alpha Virtual:

       2B2     0.165750     6A1     0.319155     3B1     0.540731
       7A1     0.549083     3B2     0.555157     8A1     0.602639
       9A1     0.829087     4B1     0.888718     4B2     0.892947
       1A2     0.925626    10A1     0.928237     5B1     1.032303
       5B2     1.032730    11A1     1.251500    12A1     1.511261
       2A2     1.788339    13A1     1.788858     6B1     1.927460
       6B2     1.929172    14A1     2.085718     7B1     2.252059
       7B2     2.267191    15A1     2.619076     8B1     2.936481
       8B2     2.937314     3A2     2.966370    16A1     2.968889
       9B1     3.102036     9B2     3.107035    17A1     3.125083
       4A2     3.200452    18A1     3.206596    10B1     3.378020
      10B2     3.386596    19A1     3.485400    11B1     3.978345
      11B2     3.983982    20A1     4.015750    21A1     4.899119
      12B1     5.443480    12B2     5.443524     5A2     5.470087
      22A1     5.470528    13B2     5.656668    13B1     5.659506
      23A1     5.967102     6A2     6.517209    24A1     6.518360
      14B1     6.775590    14B2     6.778800    25A1     7.263283
      26A1     8.478644

    Beta Occupied:

       1A1   -18.847228     2A1    -9.989935     3A1    -0.602914
       4A1    -0.224347     5A1    -0.034226     1B2    -0.024513
       1B1    -0.001130

    Beta Virtual:

       2B2     0.180571     2B1     0.215058     6A1     0.331794
       7A1     0.556927     3B2     0.567439     3B1     0.592276
       8A1     0.621667     9A1     0.832983     4B2     0.889613
       4B1     0.905435     1A2     0.962634    10A1     0.962794
       5B2     1.036375     5B1     1.056523    11A1     1.262576
      12A1     1.514477     2A2     1.793673    13A1     1.793768
       6B2     1.928555     6B1     1.947242    14A1     2.093120
       7B2     2.282134     7B1     2.316116    15A1     2.635226
       8B2     2.987296     8B1     2.987468    16A1     2.998716
       3A2     2.999336     9B2     3.115785    17A1     3.139121
       9B1     3.144006    18A1     3.267427     4A2     3.268266
      10B2     3.393854    10B1     3.425144    19A1     3.506489
      11B2     3.978516    11B1     4.000358    20A1     4.032709
      21A1     4.906598    12B2     5.450207    12B1     5.450219
       5A2     5.474095    22A1     5.474149    13B2     5.652352
      13B1     5.670041    23A1     5.970945     6A2     6.528874
      24A1     6.528894    14B2     6.772098    14B1     6.792422
      25A1     7.266745    26A1     8.484031

    Final Occupation by Irrep:
             A1    A2    B1    B2
    DOCC [     5,    0,    1,    1 ]
    SOCC [     0,    0,    1,    0 ]
    NA   [     5,    0,    2,    1 ]
    NB   [     5,    0,    1,    1 ]

  @DF-UKS Final Energy:  -113.17971494554389

   => Energetics <=

    Nuclear Repulsion Energy =             15.2861774859312831
    One-Electron Energy =                -189.3187915109466530
    Two-Electron Energy =                  72.1379074769950677
    DFT Exchange-Correlation Energy =     -11.2850083975236011
    Empirical Dispersion Energy =           0.0000000000000000
    VV10 Nonlocal Energy =                  0.0000000000000000
    Total Energy =                       -113.1797149455438927

  UHF NO Occupations:
  HONO-2 :    5 A1 1.9988943
  HONO-1 :    1 B2 1.9949439
  HONO-0 :    2 B1 1.0000000
  LUNO+0 :    2 B2 0.0050561
  LUNO+1 :    6 A1 0.0011057
  LUNO+2 :    3 B1 0.0009148
  LUNO+3 :    7 A1 0.0001520

Computation Completed

Properties will be evaluated at   0.000000,   0.000000,   0.000000 [a0]

Properties computed using the B3LYP density matrix

 Multipole Moments:

 ------------------------------------------------------------------------------------
     Multipole            Electronic (a.u.)      Nuclear  (a.u.)        Total (a.u.)
 ------------------------------------------------------------------------------------

 L = 1.  Multiply by 2.5417464519 to convert [e a0] to [Debye]
 Dipole X            :          0.0000000            0.0000000            0.0000000
 Dipole Y            :          0.0000000            0.0000000            0.0000000
 Dipole Z            :         -0.1633921           -0.0034225           -0.1668146
 Magnitude           :                                                    0.1668146

 L = 2.  Multiply by 1.3450342976 to convert [e a0^2] to [Debye ang]
 Quadrupole XX       :        -11.2338118            0.0000000          -11.2338118
 Quadrupole XY       :          0.0000000            0.0000000            0.0000000
 Quadrupole XZ       :          0.0000000            0.0000000            0.0000000
 Quadrupole YY       :         -9.9220033            0.0000000           -9.9220033
 Quadrupole YZ       :          0.0000000            0.0000000            0.0000000
 Quadrupole ZZ       :        -47.9610846           33.8063195          -14.1547651
 Traceless XX        :         11.8051548          -11.2687732            0.5363816
 Traceless YY        :         13.1169633          -11.2687732            1.8481901
 Traceless ZZ        :        -24.9221181           22.5375463           -2.3845717

 ------------------------------------------------------------------------------------
  ==> Computing MBIS Charges <==

  Electron Count from Grid (Expected Number): 15.00000 (15.00000)
  Difference: -0.00000

  MBIS Charges: (a.u.)
   Center  Symbol  Z      Pop.       Charge
      1       O    8    8.594548   -0.594548
      2       C    6    6.405452   -0.405452

  MBIS Dipoles: [e a0]
   Center  Symbol  Z        X           Y           Z
      1       O    8    0.000000   -0.000000    0.031004
      2       C    6   -0.000000    0.000000   -0.270662

  MBIS Quadrupoles: [e a0^2]
   Center  Symbol  Z      XX        XY        XZ        YY        YZ        ZZ
      1       O    8   -4.8304   -0.0000   -0.0000   -4.6153    0.0000   -4.6042
      2       C    6   -6.4034    0.0000    0.0000   -5.3067    0.0000   -6.1137

  MBIS Octupoles: [e a0^3]
   Center  Symbol  Z      XXX       XXY       XXZ       XYY       XYZ       XZZ       YYY       YYZ       YZZ       ZZZ
      1       O    8   -0.0000   -0.0000    0.0157   -0.0000    0.0000    0.0000   -0.0000    0.0009   -0.0000   -0.1542
      2       C    6   -0.0000   -0.0000   -0.4299   -0.0000    0.0000    0.0000    0.0000   -0.0156    0.0000    0.0048

  MBIS Radial Moments:
   Center  Symbol  Z      [a0^2]      [a0^3]      [a0^4]
      1       O    8   14.049906   28.355304   68.237605
      2       C    6   17.823818   48.044764   152.471918

  MBIS Valence Widths: [a0]
   Center  Symbol  Z     Width
      1       O    8    0.412174
      2       C    6    0.567567

*** tstop() called on Mac.lan at Sun Aug 10 17:43:46 2025
Module time:
	user time   =       4.09 seconds =       0.07 minutes
	system time =       1.38 seconds =       0.02 minutes
	total time  =          0 seconds =       0.00 minutes
Total time:
	user time   =      23.05 seconds =       0.38 minutes
	system time =       3.67 seconds =       0.06 minutes
	total time  =          2 seconds =       0.03 minutes

    Psi4 stopped on: Sunday, 10 August 2025 05:43PM
    Psi4 wall time for execution: 0:00:02.57

*** Psi4 exiting successfully. Buy a developer a beer!
