                               Psi4 1.9.1 release

  ==> Input File <==

--------------------------------------------------------------------------
molecule {
-1 1
N           0.000000           0.000000           0.000000
C           0.000000           0.000000           0.849244
}

set {
basis              cc-pvtz
reference          uks
maxiter            500
DAMPING_PERCENTAGE 1
E_CONVERGENCE      1.0E-8
D_CONVERGENCE      1.0E-8
DIIS_MAX_VECS      400
MBIS_MAXITER       8000
guess              read
}

E, wfn = energy('b3lyp', restart_file='last_wfn', return_wfn=True)
properties('b3lyp','MBIS_CHARGES', wfn=wfn)
wfn.to_file('last_wfn')
--------------------------------------------------------------------------

    Molecular point group: c2v
  Charge       = -1
  Multiplicity = 1
  Basis Set: CC-PVTZ
    Blend: CC-PVTZ
  Basis Set: (CC-PVTZ AUX)
    Blend: CC-PVTZ-JKFIT
  @DF-UKS Final Energy:   -92.43447988805561
    Total Energy =                        -92.4344798880556056
 Dipole X            :          0.0000000            0.0000000            0.0000000
 Dipole Y            :          0.0000000            0.0000000            0.0000000
 Dipole Z            :         -0.4185503            0.0011383           -0.4174120
 Magnitude           :                                                    0.4174120
    Molecular point group: c2v

    Geometry (in Angstrom), charge = -1, multiplicity = 1:

       Center              X                  Y                   Z               Mass
    ------------   -----------------  -----------------  -----------------  -----------------
         N            0.000000000000     0.000000000000    -0.391912433056    14.003074004430
         C            0.000000000000     0.000000000000     0.457331566944    12.000000000000

  Charge       = -1
  Multiplicity = 1
  Basis Set: CC-PVTZ
    Blend: CC-PVTZ
  Basis Set: (CC-PVTZ AUX)
    Blend: CC-PVTZ-JKFIT

    Orbital Energies [Eh]
    ---------------------

    Alpha Occupied:

       1A1   -13.917532     2A1    -9.769982     3A1    -0.663630
       1B2    -0.132967     1B1    -0.132967     4A1    -0.069157
       5A1     0.008293

    Alpha Virtual:

       2B1     0.405960     2B2     0.405960     6A1     0.425652
       7A1     0.557433     3B2     0.579164     3B1     0.579164
       8A1     0.728209     4B2     0.834103     4B1     0.834103
       1A2     0.950026     9A1     0.950026    10A1     1.160532
       5B2     1.299776     5B1     1.299776    11A1     1.357767
      12A1     1.566448     2A2     1.566448     6B2     1.851712
       6B1     1.851712    13A1     1.894323     7B1     2.272730
       7B2     2.272730    14A1     2.547815    15A1     2.806900
       8B2     2.976678     8B1     2.976678     3A2     3.189356
      16A1     3.189356    17A1     3.268159     9B2     3.313506
       9B1     3.313506     4A2     3.372655    18A1     3.372655
      10B2     3.636960    10B1     3.636960    19A1     3.758482
      11B2     4.034993    11B1     4.034993    12B2     4.425244
      12B1     4.425244    20A1     4.879021     5A2     4.879022
      21A1     4.987010    13B1     5.408995    13B2     5.408995
      22A1     5.498487     6A2     5.498488    23A1     5.905486
      24A1     6.500019    14B2     6.752598    14B1     6.752598
      25A1     8.313677    26A1    17.726168

    Beta Occupied:

       1A1   -13.917532     2A1    -9.769982     3A1    -0.663630
       1B2    -0.132967     1B1    -0.132967     4A1    -0.069157
       5A1     0.008293

    Beta Virtual:

       2B1     0.405960     2B2     0.405960     6A1     0.425652
       7A1     0.557433     3B2     0.579164     3B1     0.579164
       8A1     0.728209     4B2     0.834103     4B1     0.834103
       1A2     0.950026     9A1     0.950026    10A1     1.160532
       5B2     1.299776     5B1     1.299776    11A1     1.357767
      12A1     1.566448     2A2     1.566448     6B2     1.851712
       6B1     1.851712    13A1     1.894323     7B1     2.272730
       7B2     2.272730    14A1     2.547815    15A1     2.806900
       8B2     2.976678     8B1     2.976678     3A2     3.189356
      16A1     3.189356    17A1     3.268159     9B2     3.313506
       9B1     3.313506     4A2     3.372655    18A1     3.372655
      10B2     3.636960    10B1     3.636960    19A1     3.758482
      11B2     4.034993    11B1     4.034993    12B2     4.425244
      12B1     4.425244    20A1     4.879021     5A2     4.879022
      21A1     4.987010    13B1     5.408995    13B2     5.408995
      22A1     5.498487     6A2     5.498488    23A1     5.905486
      24A1     6.500019    14B2     6.752598    14B1     6.752598
      25A1     8.313677    26A1    17.726168

    Final Occupation by Irrep:
             A1    A2    B1    B2
    DOCC [     5,    0,    1,    1 ]
    SOCC [     0,    0,    0,    0 ]
    NA   [     5,    0,    1,    1 ]
    NB   [     5,    0,    1,    1 ]

  @DF-UKS Final Energy:   -92.43447988785543

   => Energetics <=

    Nuclear Repulsion Energy =             26.1708564889949180
    One-Electron Energy =                -180.3301102203846256
    Two-Electron Energy =                  72.1914508092807523
    DFT Exchange-Correlation Energy =     -10.4666769657464833
    Empirical Dispersion Energy =           0.0000000000000000
    VV10 Nonlocal Energy =                  0.0000000000000000
    Total Energy =                        -92.4344798878554315

  UHF NO Occupations:
  HONO-2 :    4 A1 2.0000000
  HONO-1 :    1 B1 2.0000000
  HONO-0 :    5 A1 2.0000000
  LUNO+0 :    6 A1 0.0000000
  LUNO+1 :    7 A1 0.0000000
  LUNO+2 :    8 A1 0.0000000
  LUNO+3 :    9 A1 0.0000000

Computation Completed

Properties will be evaluated at   0.000000,   0.000000,   0.000000 [a0]

Properties computed using the B3LYP density matrix

 Multipole Moments:

 ------------------------------------------------------------------------------------
     Multipole            Electronic (a.u.)      Nuclear  (a.u.)        Total (a.u.)
 ------------------------------------------------------------------------------------

 L = 1.  Multiply by 2.5417464519 to convert [e a0] to [Debye]
 Dipole X            :          0.0000000            0.0000000            0.0000000
 Dipole Y            :          0.0000000            0.0000000            0.0000000
 Dipole Z            :         -0.4185503            0.0011383           -0.4174120
 Magnitude           :                                                    0.4174120

 L = 2.  Multiply by 1.3450342976 to convert [e a0^2] to [Debye ang]
 Quadrupole XX       :         -9.4033468            0.0000000           -9.4033468
 Quadrupole XY       :          0.0000000            0.0000000            0.0000000
 Quadrupole XZ       :          0.0000000            0.0000000            0.0000000
 Quadrupole YY       :         -9.4033468            0.0000000           -9.4033468
 Quadrupole YZ       :          0.0000000            0.0000000            0.0000000
 Quadrupole ZZ       :        -21.2625781            8.3208684          -12.9417097
 Traceless XX        :          3.9530771           -2.7736228            1.1794543
 Traceless YY        :          3.9530771           -2.7736228            1.1794543
 Traceless ZZ        :         -7.9061542            5.5472456           -2.3589086

 ------------------------------------------------------------------------------------
  ==> Computing MBIS Charges <==

  Electron Count from Grid (Expected Number): 14.00000 (14.00000)
  Difference:  0.00000

  MBIS Charges: (a.u.)
   Center  Symbol  Z      Pop.       Charge
      1       N    7    7.406856   -0.406856
      2       C    6    6.593145   -0.593145

  MBIS Dipoles: [e a0]
   Center  Symbol  Z        X           Y           Z
      1       N    7   -0.000000   -0.000000    0.110579
      2       C    6   -0.000000    0.000000   -0.316697

  MBIS Quadrupoles: [e a0^2]
   Center  Symbol  Z      XX        XY        XZ        YY        YZ        ZZ
      1       N    7   -4.0886    0.0000   -0.0000   -4.0886   -0.0000   -4.9106
      2       C    6   -5.3147    0.0000    0.0000   -5.3147    0.0000   -6.6538

  MBIS Octupoles: [e a0^3]
   Center  Symbol  Z      XXX       XXY       XXZ       XYY       XYZ       XZZ       YYY       YYZ       YZZ       ZZZ
      1       N    7   -0.0000   -0.0000    0.2970    0.0000    0.0000    0.0000   -0.0000    0.2970    0.0000    0.9751
      2       C    6   -0.0000   -0.0000   -0.6853   -0.0000   -0.0000    0.0000    0.0000   -0.6853    0.0000   -1.6812

  MBIS Radial Moments:
   Center  Symbol  Z      [a0^2]      [a0^3]      [a0^4]
      1       N    7   13.087777   28.132797   72.754625
      2       C    6   17.283259   45.956166   144.587646

  MBIS Valence Widths: [a0]
   Center  Symbol  Z     Width
      1       N    7    0.434373
      2       C    6    0.542984

*** tstop() called on Mac.lan at Sun Aug 10 17:39:26 2025
Module time:
	user time   =       3.82 seconds =       0.06 minutes
	system time =       2.50 seconds =       0.04 minutes
	total time  =          1 seconds =       0.02 minutes
Total time:
	user time   =      16.81 seconds =       0.28 minutes
	system time =       4.75 seconds =       0.08 minutes
	total time  =          2 seconds =       0.03 minutes

    Psi4 stopped on: Sunday, 10 August 2025 05:39PM
    Psi4 wall time for execution: 0:00:02.09

*** Psi4 exiting successfully. Buy a developer a beer!
