                               Psi4 1.9.1 release

  ==> Input File <==

--------------------------------------------------------------------------
molecule {
-1 2
N           0.000000           0.000000           0.000000
N           0.000000           0.000000           0.862279
}

set {
basis              cc-pvtz
reference          uks
maxiter            500
DAMPING_PERCENTAGE 1
E_CONVERGENCE      1.0E-8
D_CONVERGENCE      1.0E-8
DIIS_MAX_VECS      400
MBIS_MAXITER       8000
guess              read
}

E, wfn = energy('b3lyp', restart_file='last_wfn', return_wfn=True)
properties('b3lyp','MBIS_CHARGES', wfn=wfn)
wfn.to_file('last_wfn')
--------------------------------------------------------------------------

    Molecular point group: d2h
  Charge       = -1
  Multiplicity = 2
  Basis Set: CC-PVTZ
    Blend: CC-PVTZ
  Basis Set: (CC-PVTZ AUX)
    Blend: CC-PVTZ-JKFIT
  @DF-UKS Final Energy:  -109.07690664878309
    Total Energy =                       -109.0769066487830941
 Dipole X            :          0.0000000            0.0000000            0.0000000
 Dipole Y            :          0.0000000            0.0000000            0.0000000
 Dipole Z            :          0.0000000           -0.0000000           -0.0000000
 Magnitude           :                                                    0.0000000
    Molecular point group: d2h

    Geometry (in Angstrom), charge = -1, multiplicity = 2:

       Center              X                  Y                   Z               Mass
    ------------   -----------------  -----------------  -----------------  -----------------
         N            0.000000000000     0.000000000000    -0.431139500000    14.003074004430
         N            0.000000000000     0.000000000000     0.431139500000    14.003074004430

  Charge       = -1
  Multiplicity = 2
  Basis Set: CC-PVTZ
    Blend: CC-PVTZ
  Basis Set: (CC-PVTZ AUX)
    Blend: CC-PVTZ-JKFIT

    Orbital Energies [Eh]
    ---------------------

    Alpha Occupied:

       1Ag   -13.957819     1B1u  -13.941153     2Ag    -0.869684
       1B3u   -0.211828     1B2u   -0.201977     2B1u   -0.139845
       3Ag    -0.093028     1B2g    0.344170

    Alpha Virtual:

       1B3g    0.425397     3B1u    0.562529     2B2u    0.643104
       2B3u    0.643401     4Ag     0.658308     5Ag     0.835228
       2B2g    0.858996     2B3g    0.879138     4B1u    1.103804
       1B1g    1.167790     6Ag     1.168856     5B1u    1.568417
       3B3u    1.588724     3B2u    1.591788     1Au     1.675688
       6B1u    1.677565     7Ag     1.915416     3B2g    2.007757
       3B3g    2.014434     7B1u    2.961943     4B2u    3.008065
       4B3u    3.008663     8Ag     3.492365     4B2g    3.688411
       4B3g    3.693004     8B1u    3.744792     5B3u    3.855534
       5B2u    3.855604     2B1g    3.926533     9Ag     3.927323
       6B3u    4.250536     6B2u    4.252041    10Ag     4.537603
       5B2g    4.654458     5B3g    4.654649     6B2g    4.663921
       6B3g    4.666926     3B1g    4.799316    11Ag     4.800822
       2Au     4.807735     9B1u    4.809498    12Ag     5.150680
      10B1u    5.511711     7B2u    5.751690     7B3u    5.753588
       3Au     5.930536    11B1u    5.931521    12B1u    7.114431
       7B2g    7.817982     7B3g    7.819273    13Ag     8.751674
      13B1u   25.041748

    Beta Occupied:

       1Ag   -13.951424     1B1u  -13.934643     2Ag    -0.860263
       1B2u   -0.196132     1B3u   -0.167741     2B1u   -0.110858
       3Ag    -0.074895

    Beta Virtual:

       1B3g    0.435172     1B2g    0.460771     3B1u    0.569769
       2B2u    0.646846     4Ag     0.665145     2B3u    0.666071
       5Ag     0.845680     2B3g    0.887096     2B2g    0.908798
       4B1u    1.124343     1B1g    1.183025     6Ag     1.183359
       5B1u    1.581959     3B2u    1.594965     3B3u    1.620336
       1Au     1.707012     6B1u    1.707736     7Ag     1.920660
       3B3g    2.019018     3B2g    2.039939     7B1u    2.971439
       4B2u    3.012823     4B3u    3.037326     8Ag     3.500678
       4B3g    3.699723     4B2g    3.726065     8B1u    3.764399
       5B2u    3.873149     5B3u    3.873161     2B1g    3.937771
       9Ag     3.938136     6B2u    4.254745     6B3u    4.277621
      10Ag     4.547567     5B3g    4.668278     5B2g    4.680467
       6B3g    4.681919     6B2g    4.692952     3B1g    4.827981
      11Ag     4.828352     9B1u    4.839484     2Au     4.839667
      12Ag     5.159359    10B1u    5.523217     7B2u    5.753787
       7B3u    5.778193     3Au     5.950017    11B1u    5.950218
      12B1u    7.122747     7B3g    7.822824     7B2g    7.847131
      13Ag     8.764961    13B1u   25.050184

    Final Occupation by Irrep:
             Ag   B1g   B2g   B3g    Au   B1u   B2u   B3u
    DOCC [     3,    0,    0,    0,    0,    2,    1,    1 ]
    SOCC [     0,    0,    1,    0,    0,    0,    0,    0 ]
    NA   [     3,    0,    1,    0,    0,    2,    1,    1 ]
    NB   [     3,    0,    0,    0,    0,    2,    1,    1 ]

  @DF-UKS Final Energy:  -109.07690664883705

   => Energetics <=

    Nuclear Repulsion Energy =             30.0711061301852425
    One-Electron Energy =                -211.5460608613011573
    Two-Electron Energy =                  84.0679070218911306
    DFT Exchange-Correlation Energy =     -11.6698589396122578
    Empirical Dispersion Energy =           0.0000000000000000
    VV10 Nonlocal Energy =                  0.0000000000000000
    Total Energy =                       -109.0769066488370527

  UHF NO Occupations:
  HONO-2 :    1B3u 1.9998380
  HONO-1 :    2B1u 1.9998156
  HONO-0 :    1B2g 1.0000000
  LUNO+0 :    3B1u 0.0001844
  LUNO+1 :    2B3u 0.0001620
  LUNO+2 :    4 Ag 0.0000986
  LUNO+3 :    2B2u 0.0000083

Computation Completed

Properties will be evaluated at   0.000000,   0.000000,   0.000000 [a0]

Properties computed using the B3LYP density matrix

 Multipole Moments:

 ------------------------------------------------------------------------------------
     Multipole            Electronic (a.u.)      Nuclear  (a.u.)        Total (a.u.)
 ------------------------------------------------------------------------------------

 L = 1.  Multiply by 2.5417464519 to convert [e a0] to [Debye]
 Dipole X            :          0.0000000            0.0000000            0.0000000
 Dipole Y            :          0.0000000            0.0000000            0.0000000
 Dipole Z            :          0.0000000           -0.0000000           -0.0000000
 Magnitude           :                                                    0.0000000

 L = 2.  Multiply by 1.3450342976 to convert [e a0^2] to [Debye ang]
 Quadrupole XX       :        -10.1568435            0.0000000          -10.1568435
 Quadrupole XY       :          0.0000000            0.0000000            0.0000000
 Quadrupole XZ       :          0.0000000            0.0000000            0.0000000
 Quadrupole YY       :         -8.4345888            0.0000000           -8.4345888
 Quadrupole YZ       :          0.0000000            0.0000000            0.0000000
 Quadrupole ZZ       :        -21.9282290            9.2931168          -12.6351121
 Traceless XX        :          3.3497103           -3.0977056            0.2520046
 Traceless YY        :          5.0719649           -3.0977056            1.9742593
 Traceless ZZ        :         -8.4216752            6.1954112           -2.2262640

 ------------------------------------------------------------------------------------
  ==> Computing MBIS Charges <==

  Electron Count from Grid (Expected Number): 15.00000 (15.00000)
  Difference: -0.00000

  MBIS Charges: (a.u.)
   Center  Symbol  Z      Pop.       Charge
      1       N    7    7.500000   -0.500000
      2       N    7    7.500000   -0.500000

  MBIS Dipoles: [e a0]
   Center  Symbol  Z        X           Y           Z
      1       N    7   -0.000000    0.000000    0.298231
      2       N    7    0.000000   -0.000000   -0.298231

  MBIS Quadrupoles: [e a0^2]
   Center  Symbol  Z      XX        XY        XZ        YY        YZ        ZZ
      1       N    7   -5.0784   -0.0000    0.0000   -4.2173    0.0000   -5.4997
      2       N    7   -5.0784   -0.0000   -0.0000   -4.2173   -0.0000   -5.4997

  MBIS Octupoles: [e a0^3]
   Center  Symbol  Z      XXX       XXY       XXZ       XYY       XYZ       XZZ       YYY       YYZ       YZZ       ZZZ
      1       N    7    0.0000   -0.0000    0.9919   -0.0000    0.0000   -0.0000   -0.0000    0.4641   -0.0000    0.8757
      2       N    7   -0.0000    0.0000   -0.9919   -0.0000   -0.0000   -0.0000    0.0000   -0.4641    0.0000   -0.8757

  MBIS Radial Moments:
   Center  Symbol  Z      [a0^2]      [a0^3]      [a0^4]
      1       N    7   14.795416   33.922741   93.205834
      2       N    7   14.795416   33.922741   93.205834

  MBIS Valence Widths: [a0]
   Center  Symbol  Z     Width
      1       N    7    0.458550
      2       N    7    0.458550

*** tstop() called on Mac.lan at Sun Aug 10 17:32:36 2025
Module time:
	user time   =       4.10 seconds =       0.07 minutes
	system time =       1.72 seconds =       0.03 minutes
	total time  =          0 seconds =       0.00 minutes
Total time:
	user time   =      17.67 seconds =       0.29 minutes
	system time =       3.77 seconds =       0.06 minutes
	total time  =          2 seconds =       0.03 minutes

    Psi4 stopped on: Sunday, 10 August 2025 05:32PM
    Psi4 wall time for execution: 0:00:02.08

*** Psi4 exiting successfully. Buy a developer a beer!
