                               Psi4 1.9.1 release

  ==> Input File <==

--------------------------------------------------------------------------
molecule {
-1 1
N           0.000000           0.000000           0.000000
C           0.000000           0.000000           1.261325
}

set {
basis              cc-pvtz
reference          uks
maxiter            500
DAMPING_PERCENTAGE 1
E_CONVERGENCE      1.0E-8
D_CONVERGENCE      1.0E-8
DIIS_MAX_VECS      400
MBIS_MAXITER       8000
guess              read
}

E, wfn = energy('b3lyp', restart_file='last_wfn', return_wfn=True)
properties('b3lyp','MBIS_CHARGES', wfn=wfn)
wfn.to_file('last_wfn')
--------------------------------------------------------------------------

    Molecular point group: c2v
  Charge       = -1
  Multiplicity = 1
  Basis Set: CC-PVTZ
    Blend: CC-PVTZ
  Basis Set: (CC-PVTZ AUX)
    Blend: CC-PVTZ-JKFIT
  @DF-UKS Final Energy:   -92.86861823054105
    Total Energy =                        -92.8686182305410455
 Dipole X            :          0.0000000            0.0000000            0.0000000
 Dipole Y            :          0.0000000            0.0000000            0.0000000
 Dipole Z            :         -0.2161120            0.0016907           -0.2144213
 Magnitude           :                                                    0.2144213
    Molecular point group: c2v

    Geometry (in Angstrom), charge = -1, multiplicity = 1:

       Center              X                  Y                   Z               Mass
    ------------   -----------------  -----------------  -----------------  -----------------
         N            0.000000000000     0.000000000000    -0.582081179995    14.003074004430
         C            0.000000000000     0.000000000000     0.679243820005    12.000000000000

  Charge       = -1
  Multiplicity = 1
  Basis Set: CC-PVTZ
    Blend: CC-PVTZ
  Basis Set: (CC-PVTZ AUX)
    Blend: CC-PVTZ-JKFIT

    Orbital Energies [Eh]
    ---------------------

    Alpha Occupied:

       1A1   -14.033529     2A1    -9.913087     3A1    -0.569360
       4A1    -0.152139     1B1    -0.038139     1B2    -0.038139
       5A1    -0.021888

    Alpha Virtual:

       2B1     0.283485     2B2     0.283485     6A1     0.407164
       3B2     0.565701     3B1     0.565701     7A1     0.574871
       8A1     0.705023     4B2     0.779143     4B1     0.779143
       9A1     0.853459    10A1     0.932877     1A2     0.932877
       5B1     1.120289     5B2     1.120289    11A1     1.156965
       2A2     1.438995    12A1     1.438995    13A1     1.518018
       6B2     1.787406     6B1     1.787406    14A1     2.025362
       7B2     2.320631     7B1     2.320631    15A1     2.525192
       8B2     2.971073     8B1     2.971073    16A1     3.022580
       3A2     3.022580     9B1     3.081240     9B2     3.081240
      17A1     3.149823    10B1     3.265624    10B2     3.265624
       4A2     3.286062    18A1     3.286062    19A1     3.422476
      11B1     3.705920    11B2     3.705920    20A1     4.003274
      12B2     4.225295    12B1     4.225295     5A2     4.612984
      21A1     4.612985     6A2     4.838556    22A1     4.838557
      13B1     5.074858    13B2     5.074858    23A1     5.166037
      24A1     5.627236    14B1     5.645935    14B2     5.645935
      25A1     5.823516    26A1    11.192934

    Beta Occupied:

       1A1   -14.033529     2A1    -9.913087     3A1    -0.569360
       4A1    -0.152139     1B1    -0.038139     1B2    -0.038139
       5A1    -0.021888

    Beta Virtual:

       2B1     0.283485     2B2     0.283485     6A1     0.407164
       3B2     0.565701     3B1     0.565701     7A1     0.574871
       8A1     0.705023     4B2     0.779143     4B1     0.779143
       9A1     0.853459    10A1     0.932877     1A2     0.932877
       5B1     1.120289     5B2     1.120289    11A1     1.156965
       2A2     1.438995    12A1     1.438995    13A1     1.518018
       6B2     1.787406     6B1     1.787406    14A1     2.025362
       7B1     2.320631     7B2     2.320631    15A1     2.525192
       8B2     2.971073     8B1     2.971073    16A1     3.022580
       3A2     3.022580     9B1     3.081240     9B2     3.081240
      17A1     3.149823    10B1     3.265624    10B2     3.265624
       4A2     3.286062    18A1     3.286062    19A1     3.422476
      11B1     3.705920    11B2     3.705920    20A1     4.003274
      12B2     4.225295    12B1     4.225295     5A2     4.612984
      21A1     4.612985     6A2     4.838556    22A1     4.838557
      13B1     5.074858    13B2     5.074858    23A1     5.166037
      24A1     5.627236    14B1     5.645935    14B2     5.645935
      25A1     5.823516    26A1    11.192934

    Final Occupation by Irrep:
             A1    A2    B1    B2
    DOCC [     5,    0,    1,    1 ]
    SOCC [     0,    0,    0,    0 ]
    NA   [     5,    0,    1,    1 ]
    NB   [     5,    0,    1,    1 ]

  @DF-UKS Final Energy:   -92.86861823022390

   => Energetics <=

    Nuclear Repulsion Energy =             17.6207106401125806
    One-Electron Energy =                -164.2288792946363003
    Two-Electron Energy =                  63.7611311970850210
    DFT Exchange-Correlation Energy =     -10.0215807727852049
    Empirical Dispersion Energy =           0.0000000000000000
    VV10 Nonlocal Energy =                  0.0000000000000000
    Total Energy =                        -92.8686182302239018

  UHF NO Occupations:
  HONO-2 :    3 A1 2.0000000
  HONO-1 :    4 A1 2.0000000
  HONO-0 :    5 A1 2.0000000
  LUNO+0 :    6 A1 0.0000000
  LUNO+1 :    7 A1 0.0000000
  LUNO+2 :    8 A1 0.0000000
  LUNO+3 :    9 A1 0.0000000

Computation Completed

Properties will be evaluated at   0.000000,   0.000000,   0.000000 [a0]

Properties computed using the B3LYP density matrix

 Multipole Moments:

 ------------------------------------------------------------------------------------
     Multipole            Electronic (a.u.)      Nuclear  (a.u.)        Total (a.u.)
 ------------------------------------------------------------------------------------

 L = 1.  Multiply by 2.5417464519 to convert [e a0] to [Debye]
 Dipole X            :          0.0000000            0.0000000            0.0000000
 Dipole Y            :          0.0000000            0.0000000            0.0000000
 Dipole Z            :         -0.2161120            0.0016907           -0.2144213
 Magnitude           :                                                    0.2144213

 L = 2.  Multiply by 1.3450342976 to convert [e a0^2] to [Debye ang]
 Quadrupole XX       :        -10.5217519            0.0000000          -10.5217519
 Quadrupole XY       :          0.0000000            0.0000000            0.0000000
 Quadrupole XZ       :          0.0000000            0.0000000            0.0000000
 Quadrupole YY       :        -10.5217519            0.0000000          -10.5217519
 Quadrupole YZ       :          0.0000000            0.0000000            0.0000000
 Quadrupole ZZ       :        -32.4154997           18.3551393          -14.0603604
 Traceless XX        :          7.2979159           -6.1183798            1.1795362
 Traceless YY        :          7.2979159           -6.1183798            1.1795362
 Traceless ZZ        :        -14.5958319           12.2367595           -2.3590723

 ------------------------------------------------------------------------------------
  ==> Computing MBIS Charges <==

  Electron Count from Grid (Expected Number): 14.00000 (14.00000)
  Difference:  0.00000

  MBIS Charges: (a.u.)
   Center  Symbol  Z      Pop.       Charge
      1       N    7    7.525227   -0.525227
      2       C    6    6.474773   -0.474773

  MBIS Dipoles: [e a0]
   Center  Symbol  Z        X           Y           Z
      1       N    7   -0.000000   -0.000000    0.076350
      2       C    6   -0.000000    0.000000   -0.259095

  MBIS Quadrupoles: [e a0^2]
   Center  Symbol  Z      XX        XY        XZ        YY        YZ        ZZ
      1       N    7   -4.9058    0.0000    0.0000   -4.9058   -0.0000   -5.3809
      2       C    6   -5.6160    0.0000   -0.0000   -5.6160    0.0000   -6.4286

  MBIS Octupoles: [e a0^3]
   Center  Symbol  Z      XXX       XXY       XXZ       XYY       XYZ       XZZ       YYY       YYZ       YZZ       ZZZ
      1       N    7    0.0000   -0.0000    0.0707   -0.0000    0.0000   -0.0000   -0.0000    0.0707   -0.0000    0.2874
      2       C    6   -0.0000   -0.0000   -0.2720   -0.0000   -0.0000    0.0000    0.0000   -0.2720    0.0000   -0.7465

  MBIS Radial Moments:
   Center  Symbol  Z      [a0^2]      [a0^3]      [a0^4]
      1       N    7   15.192408   34.410646   92.857556
      2       C    6   17.660622   47.039469   147.547395

  MBIS Valence Widths: [a0]
   Center  Symbol  Z     Width
      1       N    7    0.467248
      2       C    6    0.559911

*** tstop() called on Mac.lan at Sun Aug 10 17:40:32 2025
Module time:
	user time   =       3.94 seconds =       0.07 minutes
	system time =       2.05 seconds =       0.03 minutes
	total time  =          1 seconds =       0.02 minutes
Total time:
	user time   =      17.62 seconds =       0.29 minutes
	system time =       4.35 seconds =       0.07 minutes
	total time  =          2 seconds =       0.03 minutes

    Psi4 stopped on: Sunday, 10 August 2025 05:40PM
    Psi4 wall time for execution: 0:00:02.14

*** Psi4 exiting successfully. Buy a developer a beer!
