                               Psi4 1.9.1 release

  ==> Input File <==

--------------------------------------------------------------------------
molecule {
-1 3
O           0.000000           0.000000           0.000000
N           0.000000           0.000000           1.843920
}

set {
basis              cc-pvtz
reference          uks
maxiter            500
DAMPING_PERCENTAGE 1
E_CONVERGENCE      1.0E-8
D_CONVERGENCE      1.0E-8
DIIS_MAX_VECS      400
MBIS_MAXITER       8000
guess              read
}

E, wfn = energy('b3lyp', restart_file='last_wfn', return_wfn=True)
properties('b3lyp','MBIS_CHARGES', wfn=wfn)
wfn.to_file('last_wfn')
--------------------------------------------------------------------------

    Molecular point group: c2v
  Charge       = -1
  Multiplicity = 3
  Basis Set: CC-PVTZ
    Blend: CC-PVTZ
  Basis Set: (CC-PVTZ AUX)
    Blend: CC-PVTZ-JKFIT
  @DF-UKS Final Energy:  -129.81337864220188
    Total Energy =                       -129.8133786422018829
 Dipole X            :          0.0000000            0.0000000            0.0000000
 Dipole Y            :          0.0000000            0.0000000            0.0000000
 Dipole Z            :          0.2810594           -0.0069915            0.2740679
 Magnitude           :                                                    0.2740679
    Molecular point group: c2v

    Geometry (in Angstrom), charge = -1, multiplicity = 3:

       Center              X                  Y                   Z               Mass
    ------------   -----------------  -----------------  -----------------  -----------------
         O            0.000000000000     0.000000000000    -0.860742649845    15.994914619570
         N            0.000000000000     0.000000000000     0.983177350155    14.003074004430

  Charge       = -1
  Multiplicity = 3
  Basis Set: CC-PVTZ
    Blend: CC-PVTZ
  Basis Set: (CC-PVTZ AUX)
    Blend: CC-PVTZ-JKFIT

    Orbital Energies [Eh]
    ---------------------

    Alpha Occupied:

       1A1   -18.836466     2A1   -14.127773     3A1    -0.588756
       4A1    -0.455269     1B1    -0.057663     1B2    -0.057663
       5A1    -0.051274     2B1     0.024335     2B2     0.024335

    Alpha Virtual:

       6A1     0.221110     7A1     0.678098     3B1     0.696580
       3B2     0.696580     8A1     0.820175     4B2     0.897045
       4B1     0.897045     9A1     0.911126     1A2     1.274834
      10A1     1.274835     5B1     1.286359     5B2     1.286359
      11A1     1.311359    12A1     1.569092     2A2     1.802887
      13A1     1.802889     6B1     1.968976     6B2     1.968976
      14A1     2.305759     7B2     3.055295     7B1     3.055295
      15A1     3.247495    16A1     3.811625     8B1     3.912399
       8B2     3.912399     9B1     4.118087     9B2     4.118087
      17A1     4.128302     3A2     4.128303    10B1     4.165454
      10B2     4.165454    18A1     4.390319     4A2     4.638520
      19A1     4.638545    11B1     4.709909    11B2     4.709909
      20A1     5.019821     5A2     5.459506    21A1     5.459513
      12B1     5.461303    12B2     5.461303    13B2     5.562985
      13B1     5.562985    22A1     5.667655    23A1     5.821949
      24A1     6.509870     6A2     6.509905    14B2     6.645476
      14B1     6.645476    25A1     6.987068    26A1     8.120575

    Beta Occupied:

       1A1   -18.830137     2A1   -14.090296     3A1    -0.564690
       4A1    -0.346550     5A1    -0.034807     1B2     0.026658
       1B1     0.026658

    Beta Virtual:

       2B1     0.179200     2B2     0.179200     6A1     0.246949
       7A1     0.706552     3B1     0.762432     3B2     0.762432
       8A1     0.846635     4B2     0.915439     4B1     0.915439
       9A1     0.921246     5B1     1.322779     5B2     1.322779
      10A1     1.326647    11A1     1.350700     1A2     1.350701
      12A1     1.592067     2A2     1.822143    13A1     1.822145
       6B2     1.980853     6B1     1.980853    14A1     2.321793
       7B2     3.152896     7B1     3.152896    15A1     3.282961
      16A1     3.824549     8B1     3.938067     8B2     3.938067
      17A1     4.205799     3A2     4.205800     9B1     4.221663
       9B2     4.221663    10B1     4.225275    10B2     4.225275
      18A1     4.433961     4A2     4.779147    19A1     4.779169
      11B1     4.797946    11B2     4.797946    20A1     5.060372
       5A2     5.469002    21A1     5.469009    12B1     5.488084
      12B2     5.488084    13B2     5.565643    13B1     5.565643
      22A1     5.733570    23A1     5.834710    24A1     6.548438
       6A2     6.548473    14B2     6.651088    14B1     6.651088
      25A1     6.973421    26A1     8.138608

    Final Occupation by Irrep:
             A1    A2    B1    B2
    DOCC [     5,    0,    1,    1 ]
    SOCC [     0,    0,    1,    1 ]
    NA   [     5,    0,    2,    2 ]
    NB   [     5,    0,    1,    1 ]

  @DF-UKS Final Energy:  -129.81337864191957

   => Energetics <=

    Nuclear Repulsion Energy =             16.0711548209900670
    One-Electron Energy =                -214.8293002092042627
    Two-Electron Energy =                  81.4559260158355158
    DFT Exchange-Correlation Energy =     -12.5111592695408920
    Empirical Dispersion Energy =           0.0000000000000000
    VV10 Nonlocal Energy =                  0.0000000000000000
    Total Energy =                       -129.8133786419195701

  UHF NO Occupations:
  HONO-2 :    5 A1 1.9773588
  HONO-1 :    2 B2 1.0000000
  HONO-0 :    2 B1 1.0000000
  LUNO+0 :    6 A1 0.0226412
  LUNO+1 :    3 B1 0.0013906
  LUNO+2 :    3 B2 0.0013906
  LUNO+3 :    7 A1 0.0007468

Computation Completed

Properties will be evaluated at   0.000000,   0.000000,   0.000000 [a0]

Properties computed using the B3LYP density matrix

 Multipole Moments:

 ------------------------------------------------------------------------------------
     Multipole            Electronic (a.u.)      Nuclear  (a.u.)        Total (a.u.)
 ------------------------------------------------------------------------------------

 L = 1.  Multiply by 2.5417464519 to convert [e a0] to [Debye]
 Dipole X            :          0.0000000            0.0000000            0.0000000
 Dipole Y            :          0.0000000            0.0000000            0.0000000
 Dipole Z            :          0.2810595           -0.0069915            0.2740680
 Magnitude           :                                                    0.2740680

 L = 2.  Multiply by 1.3450342976 to convert [e a0^2] to [Debye ang]
 Quadrupole XX       :         -9.9190885            0.0000000           -9.9190885
 Quadrupole XY       :          0.0000000            0.0000000            0.0000000
 Quadrupole XZ       :          0.0000000            0.0000000            0.0000000
 Quadrupole YY       :         -9.9190885            0.0000000           -9.9190885
 Quadrupole YZ       :          0.0000000            0.0000000            0.0000000
 Quadrupole ZZ       :        -58.1241087           45.3292657          -12.7948431
 Traceless XX        :         16.0683401          -15.1097552            0.9585848
 Traceless YY        :         16.0683401          -15.1097552            0.9585848
 Traceless ZZ        :        -32.1366801           30.2195104           -1.9171697

 ------------------------------------------------------------------------------------
  ==> Computing MBIS Charges <==

  Electron Count from Grid (Expected Number): 16.00000 (16.00000)
  Difference:  0.00000

  MBIS Charges: (a.u.)
   Center  Symbol  Z      Pop.       Charge
      1       O    8    8.654169   -0.654169
      2       N    7    7.345831   -0.345831

  MBIS Dipoles: [e a0]
   Center  Symbol  Z        X           Y           Z
      1       O    8    0.000000    0.000000   -0.009244
      2       N    7    0.000000    0.000000   -0.138205

  MBIS Quadrupoles: [e a0^2]
   Center  Symbol  Z      XX        XY        XZ        YY        YZ        ZZ
      1       O    8   -5.0060    0.0000    0.0000   -5.0060    0.0000   -4.5016
      2       N    7   -4.9131    0.0000   -0.0000   -4.9131   -0.0000   -4.8852

  MBIS Octupoles: [e a0^3]
   Center  Symbol  Z      XXX       XXY       XXZ       XYY       XYZ       XZZ       YYY       YYZ       YZZ       ZZZ
      1       O    8    0.0000   -0.0000   -0.0560    0.0000    0.0000    0.0000    0.0000   -0.0560    0.0000   -0.4873
      2       N    7    0.0000    0.0000   -0.0145    0.0000   -0.0000    0.0000   -0.0000   -0.0145    0.0000    0.1646

  MBIS Radial Moments:
   Center  Symbol  Z      [a0^2]      [a0^3]      [a0^4]
      1       O    8   14.513577   29.674233   72.104921
      2       N    7   14.711425   33.226698   89.016245

  MBIS Valence Widths: [a0]
   Center  Symbol  Z     Width
      1       O    8    0.417180
      2       N    7    0.467649

*** tstop() called on Mac.lan at Sun Aug 10 17:47:42 2025
Module time:
	user time   =       3.62 seconds =       0.06 minutes
	system time =       2.32 seconds =       0.04 minutes
	total time  =          1 seconds =       0.02 minutes
Total time:
	user time   =      21.53 seconds =       0.36 minutes
	system time =       4.61 seconds =       0.08 minutes
	total time  =          3 seconds =       0.05 minutes

    Psi4 stopped on: Sunday, 10 August 2025 05:47PM
    Psi4 wall time for execution: 0:00:02.51

*** Psi4 exiting successfully. Buy a developer a beer!
