                               Psi4 1.9.1 release

  ==> Input File <==

--------------------------------------------------------------------------
molecule {
-1 3
O           0.000000           0.000000           0.000000
N           0.000000           0.000000           1.456749
}

set {
basis              cc-pvtz
reference          uks
maxiter            500
DAMPING_PERCENTAGE 1
E_CONVERGENCE      1.0E-8
D_CONVERGENCE      1.0E-8
DIIS_MAX_VECS      400
MBIS_MAXITER       8000
guess              read
}

E, wfn = energy('b3lyp', restart_file='last_wfn', return_wfn=True)
properties('b3lyp','MBIS_CHARGES', wfn=wfn)
wfn.to_file('last_wfn')
--------------------------------------------------------------------------

    Molecular point group: c2v
  Charge       = -1
  Multiplicity = 3
  Basis Set: CC-PVTZ
    Blend: CC-PVTZ
  Basis Set: (CC-PVTZ AUX)
    Blend: CC-PVTZ-JKFIT
  @DF-UKS Final Energy:  -129.90646680106229
    Total Energy =                       -129.9064668010622938
 Dipole X            :          0.0000000            0.0000000            0.0000000
 Dipole Y            :          0.0000000            0.0000000            0.0000000
 Dipole Z            :         -0.0778656           -0.0055235           -0.0833891
 Magnitude           :                                                    0.0833891
    Molecular point group: c2v

    Geometry (in Angstrom), charge = -1, multiplicity = 3:

       Center              X                  Y                   Z               Mass
    ------------   -----------------  -----------------  -----------------  -----------------
         O            0.000000000000     0.000000000000    -0.680011060360    15.994914619570
         N            0.000000000000     0.000000000000     0.776737939640    14.003074004430

  Charge       = -1
  Multiplicity = 3
  Basis Set: CC-PVTZ
    Blend: CC-PVTZ
  Basis Set: (CC-PVTZ AUX)
    Blend: CC-PVTZ-JKFIT

    Orbital Energies [Eh]
    ---------------------

    Alpha Occupied:

       1A1   -18.843692     2A1   -14.070448     3A1    -0.684733
       4A1    -0.380958     5A1    -0.084105     1B1    -0.082604
       1B2    -0.082604     2B1     0.073831     2B2     0.073831

    Alpha Virtual:

       6A1     0.395359     7A1     0.702199     3B1     0.723564
       3B2     0.723564     8A1     0.785063     9A1     0.883287
       4B1     0.899995     4B2     0.899995    10A1     1.289481
       1A2     1.289481     5B1     1.352645     5B2     1.352645
      11A1     1.455070     2A2     1.814860    12A1     1.814860
      13A1     1.836649     6B2     2.172753     6B1     2.172753
      14A1     2.369812     7B2     3.122033     7B1     3.122033
      15A1     3.388671     8B2     3.818587     8B1     3.818587
      16A1     4.051256    17A1     4.142158     3A2     4.142158
       9B2     4.160627     9B1     4.160627    10B2     4.324117
      10B1     4.324117    18A1     4.640162    19A1     4.692733
       4A2     4.692743    11B1     4.906529    11B2     4.906529
      20A1     5.190935    12B2     5.434302    12B1     5.434302
      21A1     5.546987     5A2     5.546988    22A1     5.603032
      13B1     6.028799    13B2     6.028799     6A2     6.513326
      23A1     6.513356    24A1     6.578978    14B1     6.904303
      14B2     6.904303    25A1     7.737517    26A1     8.913329

    Beta Occupied:

       1A1   -18.826488     2A1   -14.040059     3A1    -0.640160
       4A1    -0.298038     5A1    -0.055874     1B1    -0.006388
       1B2    -0.006388

    Beta Virtual:

       2B2     0.242268     2B1     0.242268     6A1     0.426416
       7A1     0.718472     3B1     0.779689     3B2     0.779689
       8A1     0.812312     9A1     0.898525     4B1     0.928247
       4B2     0.928247     1A2     1.349615    10A1     1.349615
       5B1     1.381018     5B2     1.381018    11A1     1.475636
      12A1     1.849328     2A2     1.849328    13A1     1.863954
       6B2     2.199079     6B1     2.199079    14A1     2.387511
       7B2     3.205631     7B1     3.205631    15A1     3.409493
       8B2     3.862391     8B1     3.862391    16A1     4.087612
      17A1     4.197939     3A2     4.197939     9B2     4.252013
       9B1     4.252013    10B2     4.365062    10B1     4.365062
      18A1     4.665340    19A1     4.816742     4A2     4.816751
      11B1     4.969692    11B2     4.969692    20A1     5.244030
      12B2     5.475705    12B1     5.475705    21A1     5.576223
       5A2     5.576224    22A1     5.630279    13B1     6.055062
      13B2     6.055062     6A2     6.576011    23A1     6.576039
      24A1     6.596808    14B1     6.935999    14B2     6.935999
      25A1     7.767507    26A1     8.943498

    Final Occupation by Irrep:
             A1    A2    B1    B2
    DOCC [     5,    0,    1,    1 ]
    SOCC [     0,    0,    1,    1 ]
    NA   [     5,    0,    2,    2 ]
    NB   [     5,    0,    1,    1 ]

  @DF-UKS Final Energy:  -129.90646680126719

   => Energetics <=

    Nuclear Repulsion Energy =             20.3425049871460359
    One-Electron Energy =                -223.4909999836249028
    Two-Electron Energy =                  85.8321132796928623
    DFT Exchange-Correlation Energy =     -12.5900850844811867
    Empirical Dispersion Energy =           0.0000000000000000
    VV10 Nonlocal Energy =                  0.0000000000000000
    Total Energy =                       -129.9064668012671859

  UHF NO Occupations:
  HONO-2 :    1 B2 1.9983323
  HONO-1 :    2 B2 1.0000000
  HONO-0 :    2 B1 1.0000000
  LUNO+0 :    3 B2 0.0016677
  LUNO+1 :    3 B1 0.0016677
  LUNO+2 :    6 A1 0.0013508
  LUNO+3 :    7 A1 0.0002294

Computation Completed

Properties will be evaluated at   0.000000,   0.000000,   0.000000 [a0]

Properties computed using the B3LYP density matrix

 Multipole Moments:

 ------------------------------------------------------------------------------------
     Multipole            Electronic (a.u.)      Nuclear  (a.u.)        Total (a.u.)
 ------------------------------------------------------------------------------------

 L = 1.  Multiply by 2.5417464519 to convert [e a0] to [Debye]
 Dipole X            :          0.0000000            0.0000000            0.0000000
 Dipole Y            :          0.0000000            0.0000000            0.0000000
 Dipole Z            :         -0.0778657           -0.0055235           -0.0833891
 Magnitude           :                                                    0.0833891

 L = 2.  Multiply by 1.3450342976 to convert [e a0^2] to [Debye ang]
 Quadrupole XX       :         -9.7551528            0.0000000           -9.7551528
 Quadrupole XY       :          0.0000000            0.0000000            0.0000000
 Quadrupole XZ       :          0.0000000            0.0000000            0.0000000
 Quadrupole YY       :         -9.7551528            0.0000000           -9.7551528
 Quadrupole YZ       :          0.0000000            0.0000000            0.0000000
 Quadrupole ZZ       :        -40.6346689           28.2920222          -12.3426467
 Traceless XX        :         10.2931720           -9.4306741            0.8624979
 Traceless YY        :         10.2931720           -9.4306741            0.8624979
 Traceless ZZ        :        -20.5863441           18.8613482           -1.7249959

 ------------------------------------------------------------------------------------
  ==> Computing MBIS Charges <==

  Electron Count from Grid (Expected Number): 16.00000 (16.00000)
  Difference: -0.00000

  MBIS Charges: (a.u.)
   Center  Symbol  Z      Pop.       Charge
      1       O    8    8.535008   -0.535008
      2       N    7    7.464991   -0.464991

  MBIS Dipoles: [e a0]
   Center  Symbol  Z        X           Y           Z
      1       O    8   -0.000000    0.000000    0.124412
      2       N    7    0.000000    0.000000   -0.212782

  MBIS Quadrupoles: [e a0^2]
   Center  Symbol  Z      XX        XY        XZ        YY        YZ        ZZ
      1       O    8   -4.6220    0.0000   -0.0000   -4.6220    0.0000   -4.4586
      2       N    7   -5.1331    0.0000    0.0000   -5.1331    0.0000   -5.0544

  MBIS Octupoles: [e a0^3]
   Center  Symbol  Z      XXX       XXY       XXZ       XYY       XYZ       XZZ       YYY       YYZ       YZZ       ZZZ
      1       O    8   -0.0000   -0.0000    0.1393    0.0000    0.0000   -0.0000    0.0000    0.1393   -0.0000   -0.0619
      2       N    7   -0.0000   -0.0000   -0.1812   -0.0000   -0.0000    0.0000   -0.0000   -0.1812    0.0000    0.2092

  MBIS Radial Moments:
   Center  Symbol  Z      [a0^2]      [a0^3]      [a0^4]
      1       O    8   13.702648   27.452336   65.603813
      2       N    7   15.320616   34.920892   94.229363

  MBIS Valence Widths: [a0]
   Center  Symbol  Z     Width
      1       O    8    0.408490
      2       N    7    0.472496

*** tstop() called on Mac.lan at Sun Aug 10 17:47:05 2025
Module time:
	user time   =       3.55 seconds =       0.06 minutes
	system time =       2.18 seconds =       0.04 minutes
	total time  =          0 seconds =       0.00 minutes
Total time:
	user time   =      17.45 seconds =       0.29 minutes
	system time =       4.31 seconds =       0.07 minutes
	total time  =          2 seconds =       0.03 minutes

    Psi4 stopped on: Sunday, 10 August 2025 05:47PM
    Psi4 wall time for execution: 0:00:02.10

*** Psi4 exiting successfully. Buy a developer a beer!
