                               Psi4 1.9.1 release

  ==> Input File <==

--------------------------------------------------------------------------
molecule {
-1 2
C           0.000000           0.000000           0.000000
C           0.000000           0.000000           1.353959
}

set {
basis              cc-pvtz
reference          uks
maxiter            500
DAMPING_PERCENTAGE 1
E_CONVERGENCE      1.0E-8
D_CONVERGENCE      1.0E-8
DIIS_MAX_VECS      400
MBIS_MAXITER       8000
guess              read
}

E, wfn = energy('b3lyp', restart_file='last_wfn', return_wfn=True)
properties('b3lyp','MBIS_CHARGES', wfn=wfn)
wfn.to_file('last_wfn')
--------------------------------------------------------------------------

    Molecular point group: d2h
  Charge       = -1
  Multiplicity = 2
  Basis Set: CC-PVTZ
    Blend: CC-PVTZ
  Basis Set: (CC-PVTZ AUX)
    Blend: CC-PVTZ-JKFIT
  @DF-UKS Final Energy:   -76.04785710551545
    Total Energy =                        -76.0478571055154475
 Dipole X            :          0.0000000            0.0000000            0.0000000
 Dipole Y            :          0.0000000            0.0000000            0.0000000
 Dipole Z            :          0.0000000           -0.0000000           -0.0000000
 Magnitude           :                                                    0.0000000
    Molecular point group: d2h

    Geometry (in Angstrom), charge = -1, multiplicity = 2:

       Center              X                  Y                   Z               Mass
    ------------   -----------------  -----------------  -----------------  -----------------
         C            0.000000000000     0.000000000000    -0.676979500000    12.000000000000
         C            0.000000000000     0.000000000000     0.676979500000    12.000000000000

  Charge       = -1
  Multiplicity = 2
  Basis Set: CC-PVTZ
    Blend: CC-PVTZ
  Basis Set: (CC-PVTZ AUX)
    Blend: CC-PVTZ-JKFIT

    Orbital Energies [Eh]
    ---------------------

    Alpha Occupied:

       1Ag    -9.941503     1B1u   -9.940661     2Ag    -0.449083
       2B1u   -0.140213     3Ag    -0.040213     1B2u   -0.004825
       1B3u   -0.004825

    Alpha Virtual:

       1B3g    0.265065     1B2g    0.265065     3B1u    0.389158
       4Ag     0.506238     2B3u    0.533254     2B2u    0.533254
       5Ag     0.614081     2B3g    0.621757     2B2g    0.621757
       4B1u    0.747990     1B1g    0.860715     6Ag     0.860715
       5B1u    0.862822     3B2u    1.012257     3B3u    1.012257
       6B1u    1.130751     1Au     1.130751     3B3g    1.396361
       3B2g    1.396361     7Ag     1.416796     7B1u    1.543371
       4B3u    2.233423     4B2u    2.233423     8Ag     2.328102
       4B2g    2.448199     4B3g    2.448199     8B1u    2.668229
       2B1g    2.716241     9Ag     2.716241     5B2u    2.754433
       5B3u    2.754433     6B2u    2.841882     6B3u    2.841882
      10Ag     2.968047     5B3g    3.141870     5B2g    3.141870
       3B1g    3.238833    11Ag     3.238835     2Au     3.328295
       9B1u    3.328298     6B3g    3.333547     6B2g    3.333547
      10B1u    3.432571     7B3u    3.663820     7B2u    3.663820
       3Au     3.681824    11B1u    3.681824    12Ag     3.996585
      12B1u    4.114422     7B2g    4.662541     7B3g    4.662541
      13Ag     4.671098    13B1u   10.613812

    Beta Occupied:

       1Ag    -9.933210     1B1u   -9.932546     2Ag    -0.417903
       2B1u   -0.080029     1B2u    0.003094     1B3u    0.003094

    Beta Virtual:

       3Ag     0.091739     1B3g    0.277642     1B2g    0.277642
       3B1u    0.399167     4Ag     0.531309     2B3u    0.537443
       2B2u    0.537443     2B3g    0.627555     2B2g    0.627555
       5Ag     0.632864     4B1u    0.795624     1B1g    0.862269
       6Ag     0.862269     5B1u    0.872779     3B2u    1.036149
       3B3u    1.036149     1Au     1.135983     6B1u    1.135983
       3B3g    1.416295     3B2g    1.416295     7Ag     1.449519
       7B1u    1.576893     4B3u    2.239995     4B2u    2.239995
       8Ag     2.359755     4B2g    2.453218     4B3g    2.453218
       8B1u    2.705057     2B1g    2.732218     9Ag     2.732218
       5B2u    2.786285     5B3u    2.786285     6B2u    2.843376
       6B3u    2.843376    10Ag     3.026847     5B3g    3.143556
       5B2g    3.143556     3B1g    3.246986    11Ag     3.246989
       2Au     3.334143     9B1u    3.334146     6B3g    3.378912
       6B2g    3.378912    10B1u    3.470809     3Au     3.699643
      11B1u    3.699643     7B3u    3.702985     7B2u    3.702985
      12Ag     4.024800    12B1u    4.163570     7B2g    4.689939
       7B3g    4.689939    13Ag     4.700710    13B1u   10.629986

    Final Occupation by Irrep:
             Ag   B1g   B2g   B3g    Au   B1u   B2u   B3u
    DOCC [     2,    0,    0,    0,    0,    2,    1,    1 ]
    SOCC [     1,    0,    0,    0,    0,    0,    0,    0 ]
    NA   [     3,    0,    0,    0,    0,    2,    1,    1 ]
    NB   [     2,    0,    0,    0,    0,    2,    1,    1 ]

  @DF-UKS Final Energy:   -76.04785710482133

   => Energetics <=

    Nuclear Repulsion Energy =             14.0701303245666995
    One-Electron Energy =                -133.0532833154897219
    Two-Electron Energy =                  51.6784120304310619
    DFT Exchange-Correlation Energy =      -8.7431161443293810
    Empirical Dispersion Energy =           0.0000000000000000
    VV10 Nonlocal Energy =                  0.0000000000000000
    Total Energy =                        -76.0478571048213325

  UHF NO Occupations:
  HONO-2 :    2 Ag 1.9996901
  HONO-1 :    2B1u 1.9982811
  HONO-0 :    3 Ag 1.0000000
  LUNO+0 :    3B1u 0.0017189
  LUNO+1 :    4 Ag 0.0003099
  LUNO+2 :    2B2u 0.0001071
  LUNO+3 :    2B3u 0.0001071

Computation Completed

Properties will be evaluated at   0.000000,   0.000000,   0.000000 [a0]

Properties computed using the B3LYP density matrix

 Multipole Moments:

 ------------------------------------------------------------------------------------
     Multipole            Electronic (a.u.)      Nuclear  (a.u.)        Total (a.u.)
 ------------------------------------------------------------------------------------

 L = 1.  Multiply by 2.5417464519 to convert [e a0] to [Debye]
 Dipole X            :          0.0000000            0.0000000            0.0000000
 Dipole Y            :          0.0000000            0.0000000            0.0000000
 Dipole Z            :          0.0000000           -0.0000000           -0.0000000
 Magnitude           :                                                    0.0000000

 L = 2.  Multiply by 1.3450342976 to convert [e a0^2] to [Debye ang]
 Quadrupole XX       :        -11.7805646            0.0000000          -11.7805646
 Quadrupole XY       :          0.0000000            0.0000000            0.0000000
 Quadrupole XZ       :          0.0000000            0.0000000            0.0000000
 Quadrupole YY       :        -11.7805646            0.0000000          -11.7805646
 Quadrupole YZ       :          0.0000000            0.0000000            0.0000000
 Quadrupole ZZ       :        -33.1274575           19.6394814          -13.4879761
 Traceless XX        :          7.1156310           -6.5464938            0.5691372
 Traceless YY        :          7.1156310           -6.5464938            0.5691372
 Traceless ZZ        :        -14.2312619           13.0929876           -1.1382743

 ------------------------------------------------------------------------------------
  ==> Computing MBIS Charges <==

  Electron Count from Grid (Expected Number): 13.00000 (13.00000)
  Difference:  0.00000

  MBIS Charges: (a.u.)
   Center  Symbol  Z      Pop.       Charge
      1       C    6    6.500000   -0.500000
      2       C    6    6.500000   -0.500000

  MBIS Dipoles: [e a0]
   Center  Symbol  Z        X           Y           Z
      1       C    6   -0.000000   -0.000000   -0.082279
      2       C    6   -0.000000    0.000000    0.082279

  MBIS Quadrupoles: [e a0^2]
   Center  Symbol  Z      XX        XY        XZ        YY        YZ        ZZ
      1       C    6   -5.8903    0.0000   -0.0000   -5.8903   -0.0000   -6.1362
      2       C    6   -5.8903    0.0000    0.0000   -5.8903    0.0000   -6.1362

  MBIS Octupoles: [e a0^3]
   Center  Symbol  Z      XXX       XXY       XXZ       XYY       XYZ       XZZ       YYY       YYZ       YZZ       ZZZ
      1       C    6   -0.0000    0.0000   -0.2354    0.0000   -0.0000   -0.0000    0.0000   -0.2354    0.0000   -0.3506
      2       C    6   -0.0000    0.0000    0.2354    0.0000    0.0000   -0.0000    0.0000    0.2354    0.0000    0.3506

  MBIS Radial Moments:
   Center  Symbol  Z      [a0^2]      [a0^3]      [a0^4]
      1       C    6   17.916761   48.183509   153.405609
      2       C    6   17.916761   48.183509   153.405609

  MBIS Valence Widths: [a0]
   Center  Symbol  Z     Width
      1       C    6    0.561995
      2       C    6    0.561995

*** tstop() called on Mac.lan at Sun Aug 10 17:30:54 2025
Module time:
	user time   =       3.74 seconds =       0.06 minutes
	system time =       1.94 seconds =       0.03 minutes
	total time  =          1 seconds =       0.02 minutes
Total time:
	user time   =      15.84 seconds =       0.26 minutes
	system time =       4.17 seconds =       0.07 minutes
	total time  =          2 seconds =       0.03 minutes

    Psi4 stopped on: Sunday, 10 August 2025 05:30PM
    Psi4 wall time for execution: 0:00:01.95

*** Psi4 exiting successfully. Buy a developer a beer!
