                               Psi4 1.9.1 release

  ==> Input File <==

--------------------------------------------------------------------------
molecule {
-1 2
O           0.000000           0.000000           0.000000
C           0.000000           0.000000           1.173894
}

set {
basis              cc-pvtz
reference          uks
maxiter            500
DAMPING_PERCENTAGE 1
E_CONVERGENCE      1.0E-8
D_CONVERGENCE      1.0E-8
DIIS_MAX_VECS      400
MBIS_MAXITER       8000
guess              read
}

E, wfn = energy('b3lyp', restart_file='last_wfn', return_wfn=True)
properties('b3lyp','MBIS_CHARGES', wfn=wfn)
wfn.to_file('last_wfn')
--------------------------------------------------------------------------

    Molecular point group: c2v
  Charge       = -1
  Multiplicity = 2
  Basis Set: CC-PVTZ
    Blend: CC-PVTZ
  Basis Set: (CC-PVTZ AUX)
    Blend: CC-PVTZ-JKFIT
  @DF-UKS Final Energy:  -113.28310605977897
    Total Energy =                       -113.2831060597789730
 Dipole X            :          0.0000000            0.0000000            0.0000000
 Dipole Y            :          0.0000000            0.0000000            0.0000000
 Dipole Z            :         -0.8365981           -0.0024178           -0.8390159
 Magnitude           :                                                    0.8390159
    Molecular point group: c2v

    Geometry (in Angstrom), charge = -1, multiplicity = 2:

       Center              X                  Y                   Z               Mass
    ------------   -----------------  -----------------  -----------------  -----------------
         O            0.000000000000     0.000000000000    -0.503188818092    15.994914619570
         C            0.000000000000     0.000000000000     0.670705181908    12.000000000000

  Charge       = -1
  Multiplicity = 2
  Basis Set: CC-PVTZ
    Blend: CC-PVTZ
  Basis Set: (CC-PVTZ AUX)
    Blend: CC-PVTZ-JKFIT

    Orbital Energies [Eh]
    ---------------------

    Alpha Occupied:

       1A1   -18.858537     2A1    -9.908157     3A1    -0.786933
       4A1    -0.244348     1B1    -0.139751     1B2    -0.123387
       5A1    -0.052084     2B1     0.188197

    Alpha Virtual:

       2B2     0.272570     6A1     0.406345     3B1     0.553242
       3B2     0.566797     7A1     0.573497     8A1     0.813477
       9A1     0.874048     4B1     0.887726     4B2     0.890922
       1A2     0.939728    10A1     0.942349     5B1     1.148743
       5B2     1.150893    11A1     1.406494    12A1     1.582095
       2A2     1.810707    13A1     1.811502     6B1     2.165171
       6B2     2.170956    14A1     2.262783     7B1     2.323029
       7B2     2.328695    15A1     2.710471     8B1     2.971855
       8B2     2.972389     3A2     3.129905    16A1     3.131626
       4A2     3.266277    17A1     3.270431     9B1     3.298438
       9B2     3.304208    18A1     3.439916    10B1     3.526357
      10B2     3.529632    19A1     3.657129    11B1     4.345597
      11B2     4.345848    20A1     4.620953    12B1     5.409645
      12B2     5.409690     5A2     5.758429    21A1     5.758999
      22A1     6.357426    13B2     6.451403    13B1     6.451796
       6A2     6.555495    23A1     6.556570    24A1     6.938563
      14B1     7.059797    14B2     7.060660    25A1     7.262876
      26A1    11.873125

    Beta Occupied:

       1A1   -18.850472     2A1    -9.899248     3A1    -0.772135
       4A1    -0.224128     1B2    -0.117111     1B1    -0.090884
       5A1    -0.027068

    Beta Virtual:

       2B2     0.282758     2B1     0.312199     6A1     0.410018
       3B2     0.573344     7A1     0.588474     3B1     0.596918
       8A1     0.819569     9A1     0.889386     4B2     0.893555
       4B1     0.907784     1A2     0.967278    10A1     0.968478
       5B2     1.152760     5B1     1.177140    11A1     1.413702
      12A1     1.593032     2A2     1.825632    13A1     1.825785
       6B2     2.174286     6B1     2.195933    14A1     2.276950
       7B2     2.335639     7B1     2.364150    15A1     2.720430
       8B2     3.007723     8B1     3.007806     3A2     3.150886
      16A1     3.150942     9B2     3.306289    17A1     3.310479
       4A2     3.311593     9B1     3.334410    18A1     3.452810
      10B2     3.533500    10B1     3.558242    19A1     3.669887
      11B2     4.349896    11B1     4.373690    20A1     4.631715
      12B2     5.427086    12B1     5.427090    21A1     5.771451
       5A2     5.771481    22A1     6.364709    13B2     6.454393
      13B1     6.475994    23A1     6.583531     6A2     6.583628
      24A1     6.952637    14B2     7.063419    14B1     7.084066
      25A1     7.271813    26A1    11.886426

    Final Occupation by Irrep:
             A1    A2    B1    B2
    DOCC [     5,    0,    1,    1 ]
    SOCC [     0,    0,    1,    0 ]
    NA   [     5,    0,    2,    1 ]
    NB   [     5,    0,    1,    1 ]

  @DF-UKS Final Energy:  -113.28310606028110

   => Energetics <=

    Nuclear Repulsion Energy =             21.6378191831289719
    One-Electron Energy =                -201.6862167446575711
    Two-Electron Energy =                  78.2374482041662560
    DFT Exchange-Correlation Energy =     -11.4721567029187703
    Empirical Dispersion Energy =           0.0000000000000000
    VV10 Nonlocal Energy =                  0.0000000000000000
    Total Energy =                       -113.2831060602810993

  UHF NO Occupations:
  HONO-2 :    1 B1 1.9994505
  HONO-1 :    5 A1 1.9993467
  HONO-0 :    2 B1 1.0000000
  LUNO+0 :    6 A1 0.0006533
  LUNO+1 :    3 B1 0.0005495
  LUNO+2 :    7 A1 0.0000565
  LUNO+3 :    2 B2 0.0000310

Computation Completed

Properties will be evaluated at   0.000000,   0.000000,   0.000000 [a0]

Properties computed using the B3LYP density matrix

 Multipole Moments:

 ------------------------------------------------------------------------------------
     Multipole            Electronic (a.u.)      Nuclear  (a.u.)        Total (a.u.)
 ------------------------------------------------------------------------------------

 L = 1.  Multiply by 2.5417464519 to convert [e a0] to [Debye]
 Dipole X            :          0.0000000            0.0000000            0.0000000
 Dipole Y            :          0.0000000            0.0000000            0.0000000
 Dipole Z            :         -0.8365981           -0.0024178           -0.8390159
 Magnitude           :                                                    0.8390159

 L = 2.  Multiply by 1.3450342976 to convert [e a0^2] to [Debye ang]
 Quadrupole XX       :        -11.3816684            0.0000000          -11.3816684
 Quadrupole XY       :          0.0000000            0.0000000            0.0000000
 Quadrupole XZ       :          0.0000000            0.0000000            0.0000000
 Quadrupole YY       :         -9.5384645            0.0000000           -9.5384645
 Quadrupole YZ       :          0.0000000            0.0000000            0.0000000
 Quadrupole ZZ       :        -30.4913755           16.8720834          -13.6192921
 Traceless XX        :          5.7555011           -5.6240278            0.1314733
 Traceless YY        :          7.5987050           -5.6240278            1.9746772
 Traceless ZZ        :        -13.3542061           11.2480556           -2.1061505

 ------------------------------------------------------------------------------------
  ==> Computing MBIS Charges <==

  Electron Count from Grid (Expected Number): 15.00000 (15.00000)
  Difference:  0.00000

  MBIS Charges: (a.u.)
   Center  Symbol  Z      Pop.       Charge
      1       O    8    8.310707   -0.310707
      2       C    6    6.689294   -0.689294

  MBIS Dipoles: [e a0]
   Center  Symbol  Z        X           Y           Z
      1       O    8    0.000000   -0.000000    0.108117
      2       C    6   -0.000000    0.000000   -0.368935

  MBIS Quadrupoles: [e a0^2]
   Center  Symbol  Z      XX        XY        XZ        YY        YZ        ZZ
      1       O    8   -4.0529   -0.0000   -0.0000   -3.8364    0.0000   -4.2063
      2       C    6   -7.3288    0.0000   -0.0000   -5.7021    0.0000   -6.8840

  MBIS Octupoles: [e a0^3]
   Center  Symbol  Z      XXX       XXY       XXZ       XYY       XYZ       XZZ       YYY       YYZ       YZZ       ZZZ
      1       O    8    0.0000   -0.0000    0.1390   -0.0000   -0.0000    0.0000   -0.0000    0.1805   -0.0000    0.2270
      2       C    6   -0.0000    0.0000   -1.2504    0.0000    0.0000    0.0000    0.0000   -0.3571    0.0000   -0.3575

  MBIS Radial Moments:
   Center  Symbol  Z      [a0^2]      [a0^3]      [a0^4]
      1       O    8   12.095540   23.054149   52.790342
      2       C    6   19.914819   55.415546   180.840743

  MBIS Valence Widths: [a0]
   Center  Symbol  Z     Width
      1       O    8    0.389703
      2       C    6    0.581903

*** tstop() called on Mac.lan at Sun Aug 10 17:42:59 2025
Module time:
	user time   =       3.97 seconds =       0.07 minutes
	system time =       2.09 seconds =       0.03 minutes
	total time  =          1 seconds =       0.02 minutes
Total time:
	user time   =      24.65 seconds =       0.41 minutes
	system time =       4.34 seconds =       0.07 minutes
	total time  =          3 seconds =       0.05 minutes

    Psi4 stopped on: Sunday, 10 August 2025 05:42PM
    Psi4 wall time for execution: 0:00:02.82

*** Psi4 exiting successfully. Buy a developer a beer!
