                               Psi4 1.9.1 release

  ==> Input File <==

--------------------------------------------------------------------------
molecule {
-1 3
C           0.000000           0.000000           0.000000
H           0.000000           0.000000           1.429738
}

set {
basis              cc-pvtz
reference          uks
maxiter            500
DAMPING_PERCENTAGE 1
E_CONVERGENCE      1.0E-8
D_CONVERGENCE      1.0E-8
DIIS_MAX_VECS      400
MBIS_MAXITER       8000
guess              read
}

E, wfn = energy('b3lyp', restart_file='last_wfn', return_wfn=True)
properties('b3lyp','MBIS_CHARGES', wfn=wfn)
wfn.to_file('last_wfn')
--------------------------------------------------------------------------

    Molecular point group: c2v
  Charge       = -1
  Multiplicity = 3
  Basis Set: CC-PVTZ
    Blend: CC-PVTZ
  Basis Set: (CC-PVTZ AUX)
    Blend: CC-PVTZ-JKFIT
  @DF-UKS Final Energy:   -38.51002031689274
    Total Energy =                        -38.5100203168927422
 Dipole X            :          0.0000000            0.0000000            0.0000000
 Dipole Y            :          0.0000000            0.0000000            0.0000000
 Dipole Z            :         -1.3525664            1.2364887           -0.1160777
 Magnitude           :                                                    0.1160777
    Molecular point group: c2v

    Geometry (in Angstrom), charge = -1, multiplicity = 3:

       Center              X                  Y                   Z               Mass
    ------------   -----------------  -----------------  -----------------  -----------------
         C            0.000000000000     0.000000000000    -0.110773764435    12.000000000000
         H            0.000000000000     0.000000000000     1.318964235565     1.007825032230

  Charge       = -1
  Multiplicity = 3
  Basis Set: CC-PVTZ
    Blend: CC-PVTZ
  Basis Set: (CC-PVTZ AUX)
    Blend: CC-PVTZ-JKFIT

    Orbital Energies [Eh]
    ---------------------

    Alpha Occupied:

       1A1    -9.915774     2A1    -0.274142     3A1     0.000766
       1B1     0.072682     1B2     0.072682

    Alpha Virtual:

       4A1     0.270547     5A1     0.522842     2B2     0.563565
       2B1     0.563565     6A1     0.590659     7A1     0.721323
       3B2     0.839868     3B1     0.839868     8A1     0.955436
       1A2     0.955436     9A1     1.169700     4B2     1.235702
       4B1     1.235702    10A1     1.481052     5B2     2.249237
       5B1     2.249237    11A1     2.446266    12A1     2.743131
       6B2     2.880888     6B1     2.880888     2A2     2.912028
      13A1     2.912028     7B1     2.977688     7B2     2.977688
      14A1     2.990591     3A2     3.234684    15A1     3.234684
       8B2     3.345400     8B1     3.345400    16A1     3.458389
       4A2     3.637625    17A1     3.637630     9B2     3.983227
       9B1     3.983227    18A1     4.024182    10B2     4.379445
      10B1     4.379445    19A1     4.548209    20A1     6.206857

    Beta Occupied:

       1A1    -9.891245     2A1    -0.193023     3A1     0.025359

    Beta Virtual:

       1B1     0.232979     1B2     0.232979     4A1     0.284667
       5A1     0.530846     6A1     0.608585     2B2     0.634760
       2B1     0.634760     7A1     0.767515     3B2     0.861049
       3B1     0.861049     1A2     1.031896     8A1     1.031896
       9A1     1.192215     4B2     1.260863     4B1     1.260863
      10A1     1.490632     5B2     2.328171     5B1     2.328171
      11A1     2.467506    12A1     2.748774     6B2     2.918078
       6B1     2.918078     2A2     2.966609    13A1     2.966610
      14A1     3.023425     7B1     3.073942     7B2     3.073942
       3A2     3.353604    15A1     3.353604     8B2     3.407647
       8B1     3.407647    16A1     3.496919     4A2     3.647160
      17A1     3.647165     9B2     3.979631     9B1     3.979631
      18A1     4.048529    10B2     4.391467    10B1     4.391467
      19A1     4.549730    20A1     6.231534

    Final Occupation by Irrep:
             A1    A2    B1    B2
    DOCC [     3,    0,    0,    0 ]
    SOCC [     0,    0,    1,    1 ]
    NA   [     3,    0,    1,    1 ]
    NB   [     3,    0,    0,    0 ]

  @DF-UKS Final Energy:   -38.51002031727185

   => Energetics <=

    Nuclear Repulsion Energy =              2.2207308360133116
    One-Electron Energy =                 -57.9655077808288084
    Two-Electron Energy =                  21.9396284115614968
    DFT Exchange-Correlation Energy =      -4.7048717840178433
    Empirical Dispersion Energy =           0.0000000000000000
    VV10 Nonlocal Energy =                  0.0000000000000000
    Total Energy =                        -38.5100203172718381

  UHF NO Occupations:
  HONO-2 :    3 A1 1.9971478
  HONO-1 :    1 B2 1.0000000
  HONO-0 :    1 B1 1.0000000
  LUNO+0 :    4 A1 0.0028522
  LUNO+1 :    5 A1 0.0008114
  LUNO+2 :    6 A1 0.0000011
  LUNO+3 :    7 A1 0.0000000

Computation Completed

Properties will be evaluated at   0.000000,   0.000000,   0.000000 [a0]

Properties computed using the B3LYP density matrix

 Multipole Moments:

 ------------------------------------------------------------------------------------
     Multipole            Electronic (a.u.)      Nuclear  (a.u.)        Total (a.u.)
 ------------------------------------------------------------------------------------

 L = 1.  Multiply by 2.5417464519 to convert [e a0] to [Debye]
 Dipole X            :          0.0000000            0.0000000            0.0000000
 Dipole Y            :          0.0000000            0.0000000            0.0000000
 Dipole Z            :         -1.3525664            1.2364887           -0.1160777
 Magnitude           :                                                    0.1160777

 L = 2.  Multiply by 1.3450342976 to convert [e a0^2] to [Debye ang]
 Quadrupole XX       :         -8.1873049            0.0000000           -8.1873049
 Quadrupole XY       :          0.0000000            0.0000000            0.0000000
 Quadrupole XZ       :          0.0000000            0.0000000            0.0000000
 Quadrupole YY       :         -8.1873049            0.0000000           -8.1873049
 Quadrupole YZ       :          0.0000000            0.0000000            0.0000000
 Quadrupole ZZ       :        -16.2427639            6.4753819           -9.7673820
 Traceless XX        :          2.6851530           -2.1584606            0.5266924
 Traceless YY        :          2.6851530           -2.1584606            0.5266924
 Traceless ZZ        :         -5.3703060            4.3169213           -1.0533847

 ------------------------------------------------------------------------------------
  ==> Computing MBIS Charges <==

  Electron Count from Grid (Expected Number):  8.00000 ( 8.00000)
  Difference:  0.00000

  MBIS Charges: (a.u.)
   Center  Symbol  Z      Pop.       Charge
      1       C    6    6.808413   -0.808413
      2       H    1    1.191587   -0.191587

  MBIS Dipoles: [e a0]
   Center  Symbol  Z        X           Y           Z
      1       C    6    0.000000   -0.000000    0.210042
      2       H    1    0.000000    0.000000   -0.017818

  MBIS Quadrupoles: [e a0^2]
   Center  Symbol  Z      XX        XY        XZ        YY        YZ        ZZ
      1       C    6   -6.9169    0.0000    0.0000   -6.9169    0.0000   -7.0230
      2       H    1   -1.2704    0.0000    0.0000   -1.2704    0.0000   -1.3419

  MBIS Octupoles: [e a0^3]
   Center  Symbol  Z      XXX       XXY       XXZ       XYY       XYZ       XZZ       YYY       YYZ       YZZ       ZZZ
      1       C    6    0.0000   -0.0000    0.1842   -0.0000   -0.0000    0.0000   -0.0000    0.1842   -0.0000   -0.6769
      2       H    1    0.0000   -0.0000   -0.1127    0.0000   -0.0000    0.0000   -0.0000   -0.1127   -0.0000   -0.2232

  MBIS Radial Moments:
   Center  Symbol  Z      [a0^2]      [a0^3]      [a0^4]
      1       C    6   20.856886   58.786063   195.717740
      2       H    1    3.882692   10.142257   31.349835

  MBIS Valence Widths: [a0]
   Center  Symbol  Z     Width
      1       C    6    0.589019
      2       H    1    0.518524

*** tstop() called on Mac.lan at Sun Aug 10 17:36:13 2025
Module time:
	user time   =       3.47 seconds =       0.06 minutes
	system time =       1.45 seconds =       0.02 minutes
	total time  =          1 seconds =       0.02 minutes
Total time:
	user time   =      15.84 seconds =       0.26 minutes
	system time =       3.71 seconds =       0.06 minutes
	total time  =          2 seconds =       0.03 minutes

    Psi4 stopped on: Sunday, 10 August 2025 05:36PM
    Psi4 wall time for execution: 0:00:01.93

*** Psi4 exiting successfully. Buy a developer a beer!
