                               Psi4 1.9.1 release

  ==> Input File <==

--------------------------------------------------------------------------
molecule {
-1 2
O           0.000000           0.000000           0.000000
C           0.000000           0.000000           1.346049
}

set {
basis              cc-pvtz
reference          uks
maxiter            500
DAMPING_PERCENTAGE 1
E_CONVERGENCE      1.0E-8
D_CONVERGENCE      1.0E-8
DIIS_MAX_VECS      400
MBIS_MAXITER       8000
guess              read
}

E, wfn = energy('b3lyp', restart_file='last_wfn', return_wfn=True)
properties('b3lyp','MBIS_CHARGES', wfn=wfn)
wfn.to_file('last_wfn')
--------------------------------------------------------------------------

    Molecular point group: c2v
  Charge       = -1
  Multiplicity = 2
  Basis Set: CC-PVTZ
    Blend: CC-PVTZ
  Basis Set: (CC-PVTZ AUX)
    Blend: CC-PVTZ-JKFIT
  @DF-UKS Final Energy:  -113.27123474186322
    Total Energy =                       -113.2712347418632248
 Dipole X            :          0.0000000            0.0000000            0.0000000
 Dipole Y            :          0.0000000            0.0000000            0.0000000
 Dipole Z            :         -0.5679713           -0.0027724           -0.5707437
 Magnitude           :                                                    0.5707437
    Molecular point group: c2v

    Geometry (in Angstrom), charge = -1, multiplicity = 2:

       Center              X                  Y                   Z               Mass
    ------------   -----------------  -----------------  -----------------  -----------------
         O            0.000000000000     0.000000000000    -0.576982934919    15.994914619570
         C            0.000000000000     0.000000000000     0.769066065081    12.000000000000

  Charge       = -1
  Multiplicity = 2
  Basis Set: CC-PVTZ
    Blend: CC-PVTZ
  Basis Set: (CC-PVTZ AUX)
    Blend: CC-PVTZ-JKFIT

    Orbital Energies [Eh]
    ---------------------

    Alpha Occupied:

       1A1   -18.858545     2A1    -9.946247     3A1    -0.705315
       4A1    -0.244172     1B1    -0.095584     1B2    -0.076643
       5A1    -0.055657     2B1     0.139644

    Alpha Virtual:

       2B2     0.228439     6A1     0.400344     3B1     0.550884
       3B2     0.565625     7A1     0.580856     8A1     0.695344
       9A1     0.816242     4B1     0.897191     4B2     0.900022
       1A2     0.938173    10A1     0.940865     5B1     1.093589
       5B2     1.094933    11A1     1.376666    12A1     1.489647
       2A2     1.791258    13A1     1.791914     6B1     2.061799
       6B2     2.066621     7B1     2.325786     7B2     2.335831
      14A1     2.337324    15A1     2.522126     8B1     2.964235
       8B2     2.965002     3A2     3.051244    16A1     3.053368
       9B1     3.234546     9B2     3.241765     4A2     3.245893
      17A1     3.251345    18A1     3.411751    10B1     3.468871
      10B2     3.472913    19A1     3.519488    11B1     4.170916
      11B2     4.173098    20A1     4.211376    12B1     5.416383
      12B2     5.416421     5A2     5.593924    21A1     5.594381
      22A1     5.767538    13B2     6.061986    13B1     6.063943
       6A2     6.535327    23A1     6.536369    24A1     6.601130
      14B1     6.986541    14B2     6.988063    25A1     7.469272
      26A1     9.768439

    Beta Occupied:

       1A1   -18.851346     2A1    -9.935346     3A1    -0.689910
       4A1    -0.218056     1B2    -0.071144     1B1    -0.046286
       5A1    -0.034743

    Beta Virtual:

       2B2     0.239639     2B1     0.271747     6A1     0.405315
       3B2     0.573122     7A1     0.596897     3B1     0.597864
       8A1     0.709992     9A1     0.822074     4B2     0.901852
       4B1     0.915607     1A2     0.968229    10A1     0.968672
       5B2     1.096629     5B1     1.120313    11A1     1.386930
      12A1     1.496139     2A2     1.804012    13A1     1.804157
       6B2     2.069340     6B1     2.090667     7B2     2.344530
      14A1     2.350634     7B1     2.376408    15A1     2.533180
       8B2     3.005882     8B1     3.005990    16A1     3.075304
       3A2     3.075432     9B2     3.245543     9B1     3.274221
      17A1     3.299163     4A2     3.300798    18A1     3.428230
      10B2     3.475747    10B1     3.502990    19A1     3.534480
      11B2     4.176855    11B1     4.200039    20A1     4.220984
      12B2     5.432180    12B1     5.432183    21A1     5.604597
       5A2     5.605072    22A1     5.778095    13B2     6.063787
      13B1     6.083420    23A1     6.560428     6A2     6.560869
      24A1     6.610651    14B2     6.990129    14B1     7.010186
      25A1     7.479714    26A1     9.781224

    Final Occupation by Irrep:
             A1    A2    B1    B2
    DOCC [     5,    0,    1,    1 ]
    SOCC [     0,    0,    1,    0 ]
    NA   [     5,    0,    2,    1 ]
    NB   [     5,    0,    1,    1 ]

  @DF-UKS Final Energy:  -113.27123473497376

   => Energetics <=

    Nuclear Repulsion Energy =             18.8704171335218831
    One-Electron Energy =                -196.4061507189217082
    Two-Electron Energy =                  75.6454467670092754
    DFT Exchange-Correlation Energy =     -11.3809479165831995
    Empirical Dispersion Energy =           0.0000000000000000
    VV10 Nonlocal Energy =                  0.0000000000000000
    Total Energy =                       -113.2712347349737598

  UHF NO Occupations:
  HONO-2 :    1 B1 1.9991914
  HONO-1 :    5 A1 1.9991521
  HONO-0 :    2 B1 1.0000000
  LUNO+0 :    6 A1 0.0008479
  LUNO+1 :    3 B1 0.0008086
  LUNO+2 :    2 B2 0.0001091
  LUNO+3 :    7 A1 0.0000512

Computation Completed

Properties will be evaluated at   0.000000,   0.000000,   0.000000 [a0]

Properties computed using the B3LYP density matrix

 Multipole Moments:

 ------------------------------------------------------------------------------------
     Multipole            Electronic (a.u.)      Nuclear  (a.u.)        Total (a.u.)
 ------------------------------------------------------------------------------------

 L = 1.  Multiply by 2.5417464519 to convert [e a0] to [Debye]
 Dipole X            :          0.0000000            0.0000000            0.0000000
 Dipole Y            :          0.0000000            0.0000000            0.0000000
 Dipole Z            :         -0.5679715           -0.0027724           -0.5707439
 Magnitude           :                                                    0.5707439

 L = 2.  Multiply by 1.3450342976 to convert [e a0^2] to [Debye ang]
 Quadrupole XX       :        -11.2465639            0.0000000          -11.2465639
 Quadrupole XY       :          0.0000000            0.0000000            0.0000000
 Quadrupole XZ       :          0.0000000            0.0000000            0.0000000
 Quadrupole YY       :         -9.6880692            0.0000000           -9.6880692
 Quadrupole YZ       :          0.0000000            0.0000000            0.0000000
 Quadrupole ZZ       :        -36.0322431           22.1836337          -13.8486093
 Traceless XX        :          7.7423948           -7.3945446            0.3478502
 Traceless YY        :          9.3008895           -7.3945446            1.9063450
 Traceless ZZ        :        -17.0432843           14.7890892           -2.2541952

 ------------------------------------------------------------------------------------
  ==> Computing MBIS Charges <==

  Electron Count from Grid (Expected Number): 15.00000 (15.00000)
  Difference: -0.00000

  MBIS Charges: (a.u.)
   Center  Symbol  Z      Pop.       Charge
      1       O    8    8.445163   -0.445163
      2       C    6    6.554837   -0.554837

  MBIS Dipoles: [e a0]
   Center  Symbol  Z        X           Y           Z
      1       O    8   -0.000000   -0.000000    0.096698
      2       C    6   -0.000000    0.000000   -0.346463

  MBIS Quadrupoles: [e a0^2]
   Center  Symbol  Z      XX        XY        XZ        YY        YZ        ZZ
      1       O    8   -4.4013   -0.0000   -0.0000   -4.1912    0.0000   -4.4095
      2       C    6   -6.8453    0.0000    0.0000   -5.4969    0.0000   -6.5201

  MBIS Octupoles: [e a0^3]
   Center  Symbol  Z      XXX       XXY       XXZ       XYY       XYZ       XZZ       YYY       YYZ       YZZ       ZZZ
      1       O    8   -0.0000   -0.0000    0.1217   -0.0000    0.0000    0.0000   -0.0000    0.1476    0.0000    0.1220
      2       C    6   -0.0000    0.0000   -0.8536   -0.0000    0.0000    0.0000    0.0000   -0.2051    0.0000   -0.2276

  MBIS Radial Moments:
   Center  Symbol  Z      [a0^2]      [a0^3]      [a0^4]
      1       O    8   13.001934   25.482307   59.812961
      2       C    6   18.862270   51.550837   165.460189

  MBIS Valence Widths: [a0]
   Center  Symbol  Z     Width
      1       O    8    0.400440
      2       C    6    0.574722

*** tstop() called on Mac.lan at Sun Aug 10 17:43:15 2025
Module time:
	user time   =       3.31 seconds =       0.06 minutes
	system time =       2.27 seconds =       0.04 minutes
	total time  =          0 seconds =       0.00 minutes
Total time:
	user time   =      17.37 seconds =       0.29 minutes
	system time =       4.80 seconds =       0.08 minutes
	total time  =          2 seconds =       0.03 minutes

    Psi4 stopped on: Sunday, 10 August 2025 05:43PM
    Psi4 wall time for execution: 0:00:02.14

*** Psi4 exiting successfully. Buy a developer a beer!
