                               Psi4 1.9.1 release

  ==> Input File <==

--------------------------------------------------------------------------
molecule {
-1 2
H           0.000000           0.000000           0.000000
H           0.000000           0.000000           0.816961
}

set {
basis              cc-pvtz
reference          uks
maxiter            500
DAMPING_PERCENTAGE 1
E_CONVERGENCE      1.0E-8
D_CONVERGENCE      1.0E-8
DIIS_MAX_VECS      400
MBIS_MAXITER       8000
guess              read
}

E, wfn = energy('b3lyp', restart_file='last_wfn', return_wfn=True)
properties('b3lyp','MBIS_CHARGES', wfn=wfn)
wfn.to_file('last_wfn')
--------------------------------------------------------------------------

    Molecular point group: d2h
  Charge       = -1
  Multiplicity = 2
  Basis Set: CC-PVTZ
    Blend: CC-PVTZ
  Basis Set: (CC-PVTZ AUX)
    Blend: CC-PVTZ-JKFIT
  @DF-UKS Final Energy:    -1.05117003861534
    Total Energy =                         -1.0511700386153429
 Dipole X            :          0.0000000            0.0000000            0.0000000
 Dipole Y            :          0.0000000            0.0000000            0.0000000
 Dipole Z            :          0.0000000            0.0000000            0.0000000
 Magnitude           :                                                    0.0000000
    Molecular point group: d2h

    Geometry (in Angstrom), charge = -1, multiplicity = 2:

       Center              X                  Y                   Z               Mass
    ------------   -----------------  -----------------  -----------------  -----------------
         H            0.000000000000     0.000000000000    -0.408480500000     1.007825032230
         H            0.000000000000     0.000000000000     0.408480500000     1.007825032230

  Charge       = -1
  Multiplicity = 2
  Basis Set: CC-PVTZ
    Blend: CC-PVTZ
  Basis Set: (CC-PVTZ AUX)
    Blend: CC-PVTZ-JKFIT

    Orbital Energies [Eh]
    ---------------------

    Alpha Occupied:

       1Ag    -0.124254     1B1u    0.213734

    Alpha Virtual:

       2Ag     0.429134     2B1u    0.689540     1B2u    0.797803
       1B3u    0.797803     3Ag     1.161238     1B2g    1.194864
       1B3g    1.194864     3B1u    1.609158     4B1u    2.358935
       4Ag     2.425620     1B1g    3.192215     5Ag     3.192215
       2B2u    3.352524     2B3u    3.352524     6Ag     3.615261
       2B3g    3.948911     2B2g    3.948911     1Au     4.021872
       5B1u    4.021872     3B2u    4.049671     3B3u    4.049671
       6B1u    4.423545     3B2g    5.436688     3B3g    5.436688
       7Ag     5.479156     7B1u    6.545777

    Beta Occupied:

       1Ag    -0.103283

    Beta Virtual:

       1B1u    0.308254     2Ag     0.447723     2B1u    0.728277
       1B2u    0.805727     1B3u    0.805727     3Ag     1.201714
       1B2g    1.224683     1B3g    1.224683     3B1u    1.643547
       4B1u    2.387755     4Ag     2.435217     1B1g    3.199008
       5Ag     3.199008     2B3u    3.355541     2B2u    3.355541
       6Ag     3.647236     2B3g    3.978980     2B2g    3.978980
       1Au     4.038388     5B1u    4.038388     3B2u    4.075972
       3B3u    4.075972     6B1u    4.455844     3B2g    5.453824
       3B3g    5.453824     7Ag     5.501049     7B1u    6.564076

    Final Occupation by Irrep:
             Ag   B1g   B2g   B3g    Au   B1u   B2u   B3u
    DOCC [     1,    0,    0,    0,    0,    0,    0,    0 ]
    SOCC [     0,    0,    0,    0,    0,    1,    0,    0 ]
    NA   [     1,    0,    0,    0,    0,    1,    0,    0 ]
    NB   [     1,    0,    0,    0,    0,    0,    0,    0 ]

  @DF-UKS Final Energy:    -1.05117004024716

   => Energetics <=

    Nuclear Repulsion Energy =              0.6477386444028540
    One-Electron Energy =                  -2.8671233773925806
    Two-Electron Energy =                   1.8827165226552149
    DFT Exchange-Correlation Energy =      -0.7145018299126527
    Empirical Dispersion Energy =           0.0000000000000000
    VV10 Nonlocal Energy =                  0.0000000000000000
    Total Energy =                         -1.0511700402471642

  UHF NO Occupations:
  HONO-1 :    1 Ag 1.9996434
  HONO-0 :    1B1u 1.0000000
  LUNO+0 :    2 Ag 0.0003566
  LUNO+1 :    3 Ag 0.0000000
  LUNO+2 :    4 Ag 0.0000000
  LUNO+3 :    2B1u 0.0000000

Computation Completed

Properties will be evaluated at   0.000000,   0.000000,   0.000000 [a0]

Properties computed using the B3LYP density matrix

 Multipole Moments:

 ------------------------------------------------------------------------------------
     Multipole            Electronic (a.u.)      Nuclear  (a.u.)        Total (a.u.)
 ------------------------------------------------------------------------------------

 L = 1.  Multiply by 2.5417464519 to convert [e a0] to [Debye]
 Dipole X            :          0.0000000            0.0000000            0.0000000
 Dipole Y            :          0.0000000            0.0000000            0.0000000
 Dipole Z            :          0.0000000            0.0000000            0.0000000
 Magnitude           :                                                    0.0000000

 L = 2.  Multiply by 1.3450342976 to convert [e a0^2] to [Debye ang]
 Quadrupole XX       :         -4.2099371            0.0000000           -4.2099371
 Quadrupole XY       :          0.0000000            0.0000000            0.0000000
 Quadrupole XZ       :          0.0000000            0.0000000            0.0000000
 Quadrupole YY       :         -4.2099371            0.0000000           -4.2099371
 Quadrupole YZ       :          0.0000000            0.0000000            0.0000000
 Quadrupole ZZ       :         -9.8969653            1.1917095           -8.7052558
 Traceless XX        :          1.8956761           -0.3972365            1.4984396
 Traceless YY        :          1.8956761           -0.3972365            1.4984396
 Traceless ZZ        :         -3.7913521            0.7944730           -2.9968792

 ------------------------------------------------------------------------------------
  ==> Computing MBIS Charges <==

  Electron Count from Grid (Expected Number):  3.00000 ( 3.00000)
  Difference:  0.00000

  MBIS Charges: (a.u.)
   Center  Symbol  Z      Pop.       Charge
      1       H    1    1.500000   -0.500000
      2       H    1    1.500000   -0.500000

  MBIS Dipoles: [e a0]
   Center  Symbol  Z        X           Y           Z
      1       H    1    0.000000    0.000000    0.318813
      2       H    1   -0.000000   -0.000000   -0.318813

  MBIS Quadrupoles: [e a0^2]
   Center  Symbol  Z      XX        XY        XZ        YY        YZ        ZZ
      1       H    1   -2.1050    0.0000    0.0000   -2.1050   -0.0000   -3.5625
      2       H    1   -2.1050    0.0000   -0.0000   -2.1050    0.0000   -3.5625

  MBIS Octupoles: [e a0^3]
   Center  Symbol  Z      XXX       XXY       XXZ       XYY       XYZ       XZZ       YYY       YYZ       YZZ       ZZZ
      1       H    1   -0.0000   -0.0000    0.8730   -0.0000   -0.0000    0.0000    0.0000    0.8730    0.0000    1.8167
      2       H    1   -0.0000    0.0000   -0.8730    0.0000    0.0000    0.0000    0.0000   -0.8730   -0.0000   -1.8167

  MBIS Radial Moments:
   Center  Symbol  Z      [a0^2]      [a0^3]      [a0^4]
      1       H    1    7.772443   25.768070   98.803472
      2       H    1    7.772443   25.768070   98.803472

  MBIS Valence Widths: [a0]
   Center  Symbol  Z     Width
      1       H    1    0.644902
      2       H    1    0.644902

*** tstop() called on Mac.lan at Sun Aug 10 17:25:49 2025
Module time:
	user time   =       0.56 seconds =       0.01 minutes
	system time =       1.35 seconds =       0.02 minutes
	total time  =          0 seconds =       0.00 minutes
Total time:
	user time   =       1.76 seconds =       0.03 minutes
	system time =       3.33 seconds =       0.06 minutes
	total time  =          0 seconds =       0.00 minutes

    Psi4 stopped on: Sunday, 10 August 2025 05:25PM
    Psi4 wall time for execution: 0:00:00.80

*** Psi4 exiting successfully. Buy a developer a beer!
