                               Psi4 1.9.1 release

  ==> Input File <==

--------------------------------------------------------------------------
molecule {
-1 2
O           0.000000           0.000000           0.000000
O           0.000000           0.000000           0.917678
}

set {
basis              cc-pvtz
reference          uks
maxiter            500
DAMPING_PERCENTAGE 1
E_CONVERGENCE      1.0E-8
D_CONVERGENCE      1.0E-8
DIIS_MAX_VECS      400
MBIS_MAXITER       8000
guess              read
}

E, wfn = energy('b3lyp', restart_file='last_wfn', return_wfn=True)
properties('b3lyp','MBIS_CHARGES', wfn=wfn)
wfn.to_file('last_wfn')
--------------------------------------------------------------------------

    Molecular point group: d2h
  Charge       = -1
  Multiplicity = 2
  Basis Set: CC-PVTZ
    Blend: CC-PVTZ
  Basis Set: (CC-PVTZ AUX)
    Blend: CC-PVTZ-JKFIT
  @DF-UKS Final Energy:  -149.96842719189831
    Total Energy =                       -149.9684271918982859
 Dipole X            :          0.0000000            0.0000000            0.0000000
 Dipole Y            :          0.0000000            0.0000000            0.0000000
 Dipole Z            :          0.0000000            0.0000000            0.0000000
 Magnitude           :                                                    0.0000000
    Molecular point group: d2h

    Geometry (in Angstrom), charge = -1, multiplicity = 2:

       Center              X                  Y                   Z               Mass
    ------------   -----------------  -----------------  -----------------  -----------------
         O            0.000000000000     0.000000000000    -0.458839000000    15.994914619570
         O            0.000000000000     0.000000000000     0.458839000000    15.994914619570

  Charge       = -1
  Multiplicity = 2
  Basis Set: CC-PVTZ
    Blend: CC-PVTZ
  Basis Set: (CC-PVTZ AUX)
    Blend: CC-PVTZ-JKFIT

    Orbital Energies [Eh]
    ---------------------

    Alpha Occupied:

       1Ag   -18.780443     1B1u  -18.777374     2Ag    -1.151260
       2B1u   -0.311995     1B2u   -0.284621     1B3u   -0.245488
       3Ag    -0.177289     1B3g    0.242204     1B2g    0.281739

    Alpha Virtual:

       3B1u    0.630707     2B2u    0.781100     2B3u    0.801846
       4Ag     0.818278     2B3g    0.960811     2B2g    0.983391
       5Ag     1.028779     4B1u    1.363374     5B1u    1.534878
       1B1g    1.538817     6Ag     1.539141     3B2u    1.902527
       3B3u    1.932109     1Au     2.136340     6B1u    2.136629
       7Ag     2.540160     3B3g    2.636839     3B2g    2.662735
       7B1u    2.971626     4B2u    3.817068     4B3u    3.851761
       8Ag     4.231399     4B3g    4.361081     4B2g    4.397746
       8B1u    4.796125     2B1g    4.983531     9Ag     4.983952
       5B2u    5.087538     5B3u    5.087570     6B2u    5.283823
       6B3u    5.313309     5B3g    5.798550     5B2g    5.798564
      10Ag     5.853154     6B3g    6.407918     6B2g    6.437523
      11Ag     6.449963     3B1g    6.449980     9B1u    6.625283
       2Au     6.629500    10B1u    6.664095     3Au     6.980408
      11B1u    6.981376    12Ag     7.059490     7B2u    7.249132
       7B3u    7.282031    12B1u    8.277157     7B3g    9.115898
       7B2g    9.148006    13Ag     9.393625    13B1u   23.882801

    Beta Occupied:

       1Ag   -18.767579     1B1u  -18.764394     2Ag    -1.132336
       2B1u   -0.271894     1B3u   -0.234698     1B2u   -0.212234
       3Ag    -0.154005     1B2g    0.295724

    Beta Virtual:

       1B3g    0.402542     3B1u    0.638159     2B3u    0.805792
       2B2u    0.806082     4Ag     0.823383     2B2g    0.990954
       2B3g    1.010717     5Ag     1.041683     4B1u    1.382465
       5B1u    1.555899     1B1g    1.557251     6Ag     1.558343
       3B3u    1.935394     3B2u    1.938002     1Au     2.168170
       6B1u    2.169801     7Ag     2.550793     3B2g    2.667573
       3B3g    2.672780     7B1u    2.985831     4B3u    3.861730
       4B2u    3.872137     8Ag     4.243323     4B2g    4.408477
       4B3g    4.417602     8B1u    4.818313     2B1g    4.999054
       9Ag     5.000019     5B3u    5.116075     5B2u    5.116240
       6B2u    5.314787     6B3u    5.317150     5B2g    5.833521
       5B3g    5.833740    10Ag     5.866709     6B2g    6.442154
       6B3g    6.448585     3B1g    6.495446    11Ag     6.498228
       9B1u    6.675219     2Au     6.676257    10B1u    6.682386
       3Au     7.004541    11B1u    7.005807    12Ag     7.080661
       7B3u    7.286775     7B2u    7.288299    12B1u    8.292570
       7B2g    9.153498     7B3g    9.154561    13Ag     9.410854
      13B1u   23.900765

    Final Occupation by Irrep:
             Ag   B1g   B2g   B3g    Au   B1u   B2u   B3u
    DOCC [     3,    0,    1,    0,    0,    2,    1,    1 ]
    SOCC [     0,    0,    0,    1,    0,    0,    0,    0 ]
    NA   [     3,    0,    1,    1,    0,    2,    1,    1 ]
    NB   [     3,    0,    1,    0,    0,    2,    1,    1 ]

  @DF-UKS Final Energy:  -149.96842719182112

   => Energetics <=

    Nuclear Repulsion Energy =             36.9054739057490693
    One-Electron Energy =                -284.9804282040267367
    Two-Electron Energy =                 112.4996179029679411
    DFT Exchange-Correlation Energy =     -14.3930907965113821
    Empirical Dispersion Energy =           0.0000000000000000
    VV10 Nonlocal Energy =                  0.0000000000000000
    Total Energy =                       -149.9684271918211209

  UHF NO Occupations:
  HONO-2 :    2B1u 1.9997747
  HONO-1 :    1B2u 1.9995452
  HONO-0 :    1B3g 1.0000000
  LUNO+0 :    2B2u 0.0004548
  LUNO+1 :    3B1u 0.0002253
  LUNO+2 :    4 Ag 0.0001196
  LUNO+3 :    2B2g 0.0000590

Computation Completed

Properties will be evaluated at   0.000000,   0.000000,   0.000000 [a0]

Properties computed using the B3LYP density matrix

 Multipole Moments:

 ------------------------------------------------------------------------------------
     Multipole            Electronic (a.u.)      Nuclear  (a.u.)        Total (a.u.)
 ------------------------------------------------------------------------------------

 L = 1.  Multiply by 2.5417464519 to convert [e a0] to [Debye]
 Dipole X            :          0.0000000            0.0000000            0.0000000
 Dipole Y            :          0.0000000            0.0000000            0.0000000
 Dipole Z            :          0.0000000            0.0000000            0.0000000
 Magnitude           :                                                    0.0000000

 L = 2.  Multiply by 1.3450342976 to convert [e a0^2] to [Debye ang]
 Quadrupole XX       :         -9.2323305            0.0000000           -9.2323305
 Quadrupole XY       :          0.0000000            0.0000000            0.0000000
 Quadrupole XZ       :          0.0000000            0.0000000            0.0000000
 Quadrupole YY       :         -8.2444026            0.0000000           -8.2444026
 Quadrupole YZ       :          0.0000000            0.0000000            0.0000000
 Quadrupole ZZ       :        -23.3748779           12.0292449          -11.3456330
 Traceless XX        :          4.3848732           -4.0097483            0.3751249
 Traceless YY        :          5.3728011           -4.0097483            1.3630528
 Traceless ZZ        :         -9.7576742            8.0194966           -1.7381776

 ------------------------------------------------------------------------------------
  ==> Computing MBIS Charges <==

  Electron Count from Grid (Expected Number): 17.00000 (17.00000)
  Difference: -0.00000

  MBIS Charges: (a.u.)
   Center  Symbol  Z      Pop.       Charge
      1       O    8    8.500000   -0.500000
      2       O    8    8.500000   -0.500000

  MBIS Dipoles: [e a0]
   Center  Symbol  Z        X           Y           Z
      1       O    8   -0.000000   -0.000000    0.373281
      2       O    8   -0.000000    0.000000   -0.373281

  MBIS Quadrupoles: [e a0^2]
   Center  Symbol  Z      XX        XY        XZ        YY        YZ        ZZ
      1       O    8   -4.6162   -0.0000    0.0000   -4.1222   -0.0000   -4.6496
      2       O    8   -4.6162    0.0000    0.0000   -4.1222    0.0000   -4.6496

  MBIS Octupoles: [e a0^3]
   Center  Symbol  Z      XXX       XXY       XXZ       XYY       XYZ       XZZ       YYY       YYZ       YZZ       ZZZ
      1       O    8   -0.0000   -0.0000    0.7905   -0.0000    0.0000   -0.0000    0.0000    0.5519    0.0000    0.3066
      2       O    8   -0.0000   -0.0000   -0.7905    0.0000    0.0000   -0.0000    0.0000   -0.5519   -0.0000   -0.3066

  MBIS Radial Moments:
   Center  Symbol  Z      [a0^2]      [a0^3]      [a0^4]
      1       O    8   13.387941   27.014187   65.449196
      2       O    8   13.387941   27.014187   65.449196

  MBIS Valence Widths: [a0]
   Center  Symbol  Z     Width
      1       O    8    0.402670
      2       O    8    0.402670

*** tstop() called on Mac.lan at Sun Aug 10 17:27:28 2025
Module time:
	user time   =       4.05 seconds =       0.07 minutes
	system time =       1.77 seconds =       0.03 minutes
	total time  =          1 seconds =       0.02 minutes
Total time:
	user time   =      30.54 seconds =       0.51 minutes
	system time =       3.96 seconds =       0.07 minutes
	total time  =          3 seconds =       0.05 minutes

    Psi4 stopped on: Sunday, 10 August 2025 05:27PM
    Psi4 wall time for execution: 0:00:03.40

*** Psi4 exiting successfully. Buy a developer a beer!
