                               Psi4 1.9.1 release

  ==> Input File <==

--------------------------------------------------------------------------
molecule {
-1 3
O           0.000000           0.000000           0.000000
N           0.000000           0.000000           0.950447
}

set {
basis              cc-pvtz
reference          uks
maxiter            500
DAMPING_PERCENTAGE 1
E_CONVERGENCE      1.0E-8
D_CONVERGENCE      1.0E-8
DIIS_MAX_VECS      400
MBIS_MAXITER       8000
guess              read
}

E, wfn = energy('b3lyp', restart_file='last_wfn', return_wfn=True)
properties('b3lyp','MBIS_CHARGES', wfn=wfn)
wfn.to_file('last_wfn')
--------------------------------------------------------------------------

    Molecular point group: c2v
  Charge       = -1
  Multiplicity = 3
  Basis Set: CC-PVTZ
    Blend: CC-PVTZ
  Basis Set: (CC-PVTZ AUX)
    Blend: CC-PVTZ-JKFIT
  @DF-UKS Final Energy:  -129.69450185939914
    Total Energy =                       -129.6945018593991392
 Dipole X            :          0.0000000            0.0000000            0.0000000
 Dipole Y            :          0.0000000            0.0000000            0.0000000
 Dipole Z            :         -0.6804488           -0.0036038           -0.6840525
 Magnitude           :                                                    0.6840525
    Molecular point group: c2v

    Geometry (in Angstrom), charge = -1, multiplicity = 3:

       Center              X                  Y                   Z               Mass
    ------------   -----------------  -----------------  -----------------  -----------------
         O            0.000000000000     0.000000000000    -0.443669068787    15.994914619570
         N            0.000000000000     0.000000000000     0.506777931213    14.003074004430

  Charge       = -1
  Multiplicity = 3
  Basis Set: CC-PVTZ
    Blend: CC-PVTZ
  Basis Set: (CC-PVTZ AUX)
    Blend: CC-PVTZ-JKFIT

    Orbital Energies [Eh]
    ---------------------

    Alpha Occupied:

       1A1   -18.823513     2A1   -13.966424     3A1    -1.008864
       4A1    -0.289104     1B2    -0.239954     1B1    -0.239954
       5A1    -0.118996     2B2     0.254092     2B1     0.254092

    Alpha Virtual:

       6A1     0.519883     3B2     0.699431     3B1     0.699431
       7A1     0.727551     8A1     0.838783     4B1     0.903054
       4B2     0.903054     9A1     1.263822     1A2     1.263823
      10A1     1.301945    11A1     1.514344     5B1     1.606022
       5B2     1.606022     2A2     1.936344    12A1     1.936345
      13A1     2.238578     6B1     2.411996     6B2     2.411996
      14A1     2.730596     7B1     3.165119     7B2     3.165119
      15A1     3.550721    16A1     4.060558     8B1     4.121996
       8B2     4.121996     9B2     4.130607     9B1     4.130607
       3A2     4.241617    17A1     4.241617    10B2     4.533378
      10B1     4.533378    18A1     4.766277     4A2     4.766278
      19A1     5.002916    11B1     5.197863    11B2     5.197863
      12B2     5.488664    12B1     5.488664    20A1     5.861139
      21A1     6.390087     5A2     6.390087     6A2     6.539550
      22A1     6.539555    13B1     6.946529    13B2     6.946529
      23A1     7.094904    24A1     7.631105    14B2     8.131306
      14B1     8.131306    25A1     8.793435    26A1    19.733717

    Beta Occupied:

       1A1   -18.803661     2A1   -13.945042     3A1    -0.978071
       4A1    -0.233631     1B1    -0.172071     1B2    -0.172071
       5A1    -0.063818

    Beta Virtual:

       2B2     0.406947     2B1     0.406947     6A1     0.530490
       3B2     0.734736     3B1     0.734736     7A1     0.749144
       8A1     0.864264     4B1     0.950734     4B2     0.950734
       1A2     1.307071     9A1     1.307071    10A1     1.340698
      11A1     1.532922     5B1     1.642525     5B2     1.642525
      12A1     1.987086     2A2     1.987086    13A1     2.262483
       6B1     2.445666     6B2     2.445666    14A1     2.761345
       7B1     3.225501     7B2     3.225501    15A1     3.579535
      16A1     4.089440     8B1     4.173875     8B2     4.173875
       9B2     4.194200     9B1     4.194200    17A1     4.274957
       3A2     4.274957    10B2     4.571321    10B1     4.571321
      18A1     4.856021     4A2     4.856022    19A1     5.032690
      11B1     5.231593    11B2     5.231593    12B2     5.538554
      12B1     5.538554    20A1     5.889949     5A2     6.433290
      21A1     6.433290     6A2     6.607214    22A1     6.607219
      13B1     6.982511    13B2     6.982511    23A1     7.114015
      24A1     7.656352    14B2     8.169066    14B1     8.169066
      25A1     8.827462    26A1    19.763351

    Final Occupation by Irrep:
             A1    A2    B1    B2
    DOCC [     5,    0,    1,    1 ]
    SOCC [     0,    0,    1,    1 ]
    NA   [     5,    0,    2,    2 ]
    NB   [     5,    0,    1,    1 ]

  @DF-UKS Final Energy:  -129.69450185915352

   => Energetics <=

    Nuclear Repulsion Energy =             31.1789334886847911
    One-Electron Energy =                -243.9112780514696226
    Two-Electron Energy =                  95.9784131571290402
    DFT Exchange-Correlation Energy =     -12.9405704534977506
    Empirical Dispersion Energy =           0.0000000000000000
    VV10 Nonlocal Energy =                  0.0000000000000000
    Total Energy =                       -129.6945018591535188

  UHF NO Occupations:
  HONO-2 :    5 A1 1.9994416
  HONO-1 :    2 B1 1.0000000
  HONO-0 :    2 B2 1.0000000
  LUNO+0 :    6 A1 0.0005584
  LUNO+1 :    3 B2 0.0005112
  LUNO+2 :    3 B1 0.0005112
  LUNO+3 :    7 A1 0.0001639

Computation Completed

Properties will be evaluated at   0.000000,   0.000000,   0.000000 [a0]

Properties computed using the B3LYP density matrix

 Multipole Moments:

 ------------------------------------------------------------------------------------
     Multipole            Electronic (a.u.)      Nuclear  (a.u.)        Total (a.u.)
 ------------------------------------------------------------------------------------

 L = 1.  Multiply by 2.5417464519 to convert [e a0] to [Debye]
 Dipole X            :          0.0000000            0.0000000            0.0000000
 Dipole Y            :          0.0000000            0.0000000            0.0000000
 Dipole Z            :         -0.6804488           -0.0036038           -0.6840525
 Magnitude           :                                                    0.6840525

 L = 2.  Multiply by 1.3450342976 to convert [e a0^2] to [Debye ang]
 Quadrupole XX       :         -9.3581405            0.0000000           -9.3581405
 Quadrupole XY       :          0.0000000            0.0000000            0.0000000
 Quadrupole XZ       :          0.0000000            0.0000000            0.0000000
 Quadrupole YY       :         -9.3581405            0.0000000           -9.3581405
 Quadrupole YZ       :          0.0000000            0.0000000            0.0000000
 Quadrupole ZZ       :        -24.0704011           12.0434341          -12.0269669
 Traceless XX        :          4.9040869           -4.0144780            0.8896088
 Traceless YY        :          4.9040869           -4.0144780            0.8896088
 Traceless ZZ        :         -9.8081737            8.0289561           -1.7792176

 ------------------------------------------------------------------------------------
  ==> Computing MBIS Charges <==

  Electron Count from Grid (Expected Number): 16.00000 (16.00000)
  Difference: -0.00000

  MBIS Charges: (a.u.)
   Center  Symbol  Z      Pop.       Charge
      1       O    8    8.204788   -0.204788
      2       N    7    7.795212   -0.795212

  MBIS Dipoles: [e a0]
   Center  Symbol  Z        X           Y           Z
      1       O    8    0.000000    0.000000    0.253858
      2       N    7    0.000000   -0.000000   -0.348055

  MBIS Quadrupoles: [e a0^2]
   Center  Symbol  Z      XX        XY        XZ        YY        YZ        ZZ
      1       O    8   -3.7361   -0.0000   -0.0000   -3.7361   -0.0000   -4.1833
      2       N    7   -5.6221   -0.0000    0.0000   -5.6221   -0.0000   -5.8781

  MBIS Octupoles: [e a0^3]
   Center  Symbol  Z      XXX       XXY       XXZ       XYY       XYZ       XZZ       YYY       YYZ       YZZ       ZZZ
      1       O    8    0.0000    0.0000    0.3789    0.0000    0.0000    0.0000   -0.0000    0.3789    0.0000    0.5084
      2       N    7    0.0000   -0.0000   -0.8885    0.0000   -0.0000    0.0000   -0.0000   -0.8885    0.0000    0.0889

  MBIS Radial Moments:
   Center  Symbol  Z      [a0^2]      [a0^3]      [a0^4]
      1       O    8   11.655457   22.210974   50.996384
      2       N    7   17.122201   40.740463   114.752253

  MBIS Valence Widths: [a0]
   Center  Symbol  Z     Width
      1       O    8    0.384151
      2       N    7    0.483990

*** tstop() called on Mac.lan at Sun Aug 10 17:45:21 2025
Module time:
	user time   =      24.71 seconds =       0.41 minutes
	system time =       3.48 seconds =       0.06 minutes
	total time  =          3 seconds =       0.05 minutes
Total time:
	user time   =     134.35 seconds =       2.24 minutes
	system time =       8.01 seconds =       0.13 minutes
	total time  =         15 seconds =       0.25 minutes

    Psi4 stopped on: Sunday, 10 August 2025 05:45PM
    Psi4 wall time for execution: 0:00:15.07

*** Psi4 exiting successfully. Buy a developer a beer!
