                               Psi4 1.9.1 release

  ==> Input File <==

--------------------------------------------------------------------------
molecule {
-1 2
N           0.000000           0.000000           0.000000
N           0.000000           0.000000           1.057535
}

set {
basis              cc-pvtz
reference          uks
maxiter            500
DAMPING_PERCENTAGE 1
E_CONVERGENCE      1.0E-8
D_CONVERGENCE      1.0E-8
DIIS_MAX_VECS      400
MBIS_MAXITER       8000
guess              read
}

E, wfn = energy('b3lyp', restart_file='last_wfn', return_wfn=True)
properties('b3lyp','MBIS_CHARGES', wfn=wfn)
wfn.to_file('last_wfn')
--------------------------------------------------------------------------

    Molecular point group: d2h
  Charge       = -1
  Multiplicity = 2
  Basis Set: CC-PVTZ
    Blend: CC-PVTZ
  Basis Set: (CC-PVTZ AUX)
    Blend: CC-PVTZ-JKFIT
  @DF-UKS Final Energy:  -109.44401228255943
    Total Energy =                       -109.4440122825594273
 Dipole X            :          0.0000000            0.0000000            0.0000000
 Dipole Y            :          0.0000000            0.0000000            0.0000000
 Dipole Z            :          0.0000000            0.0000000            0.0000000
 Magnitude           :                                                    0.0000000
    Molecular point group: d2h

    Geometry (in Angstrom), charge = -1, multiplicity = 2:

       Center              X                  Y                   Z               Mass
    ------------   -----------------  -----------------  -----------------  -----------------
         N            0.000000000000     0.000000000000    -0.528767500000    14.003074004430
         N            0.000000000000     0.000000000000     0.528767500000    14.003074004430

  Charge       = -1
  Multiplicity = 2
  Basis Set: CC-PVTZ
    Blend: CC-PVTZ
  Basis Set: (CC-PVTZ AUX)
    Blend: CC-PVTZ-JKFIT

    Orbital Energies [Eh]
    ---------------------

    Alpha Occupied:

       1Ag   -13.989353     1B1u  -13.986945     2Ag    -0.762183
       2B1u   -0.189743     1B3u   -0.131359     1B2u   -0.113062
       3Ag    -0.073185     1B2g    0.248605

    Alpha Virtual:

       1B3g    0.339044     3B1u    0.555648     2B3u    0.680823
       2B2u    0.681443     4Ag     0.686509     5Ag     0.816447
       2B2g    0.816504     2B3g    0.833705     4B1u    1.050566
       1B1g    1.175620     6Ag     1.176731     5B1u    1.234038
       3B3u    1.466926     3B2u    1.468561     1Au     1.608857
       6B1u    1.610513     7Ag     2.002565     3B2g    2.008523
       3B3g    2.012820     7B1u    2.352583     4B3u    3.099359
       4B2u    3.107329     8Ag     3.315061     4B2g    3.483733
       4B3g    3.491151     8B1u    3.696857     2B1g    3.850397
       9Ag     3.851330     5B3u    3.948840     5B2u    3.948964
       6B2u    4.005824     6B3u    4.007865    10Ag     4.384598
       5B2g    4.476138     5B3g    4.476335     3B1g    4.731889
      11Ag     4.734379     6B2g    4.798904     6B3g    4.804317
       2Au     4.860948     9B1u    4.863541    10B1u    5.098719
       3Au     5.373840    11B1u    5.375034    12Ag     5.403999
       7B3u    5.429930     7B2u    5.430237    12B1u    6.207823
       7B3g    6.963261     7B2g    6.963281    13Ag     7.138179
      13B1u   17.767424

    Beta Occupied:

       1Ag   -13.979942     1B1u  -13.977451     2Ag    -0.746521
       2B1u   -0.156549     1B2u   -0.105060     1B3u   -0.072973
       3Ag    -0.055114

    Beta Virtual:

       1B3g    0.349976     1B2g    0.380448     3B1u    0.562397
       2B2u    0.685222     4Ag     0.691775     2B3u    0.704558
       5Ag     0.826712     2B3g    0.841234     2B2g    0.863169
       4B1u    1.066198     1B1g    1.192331     6Ag     1.192605
       5B1u    1.252124     3B2u    1.471073     3B3u    1.496749
       1Au     1.638895     6B1u    1.639106     7Ag     2.011210
       3B3g    2.016721     3B2g    2.038878     7B1u    2.364047
       4B2u    3.114654     4B3u    3.143470     8Ag     3.323764
       4B3g    3.499480     4B2g    3.530230     8B1u    3.714939
       2B1g    3.863962     9Ag     3.864319     5B2u    3.973371
       5B3u    3.973643     6B2u    4.009159     6B3u    4.033991
      10Ag     4.395645     5B3g    4.507224     5B2g    4.507244
       3B1g    4.771644    11Ag     4.771827     6B3g    4.807376
       6B2g    4.833081     9B1u    4.902007     2Au     4.902499
      10B1u    5.112942     3Au     5.394802    11B1u    5.395530
      12Ag     5.419554     7B2u    5.433426     7B3u    5.461646
      12B1u    6.219975     7B3g    6.966986     7B2g    6.994264
      13Ag     7.152194    13B1u   17.780515

    Final Occupation by Irrep:
             Ag   B1g   B2g   B3g    Au   B1u   B2u   B3u
    DOCC [     3,    0,    0,    0,    0,    2,    1,    1 ]
    SOCC [     0,    0,    1,    0,    0,    0,    0,    0 ]
    NA   [     3,    0,    1,    0,    0,    2,    1,    1 ]
    NB   [     3,    0,    0,    0,    0,    2,    1,    1 ]

  @DF-UKS Final Energy:  -109.44401228294515

   => Energetics <=

    Nuclear Repulsion Energy =             24.5189836013276192
    One-Electron Energy =                -201.6215269901581166
    Two-Electron Energy =                  79.0822457050044818
    DFT Exchange-Correlation Energy =     -11.4237145991191333
    Empirical Dispersion Energy =           0.0000000000000000
    VV10 Nonlocal Energy =                  0.0000000000000000
    Total Energy =                       -109.4440122829451525

  UHF NO Occupations:
  HONO-2 :    2B1u 1.9997177
  HONO-1 :    1B3u 1.9994465
  HONO-0 :    1B2g 1.0000000
  LUNO+0 :    2B3u 0.0005535
  LUNO+1 :    3B1u 0.0002823
  LUNO+2 :    4 Ag 0.0001479
  LUNO+3 :    2B2u 0.0000219

Computation Completed

Properties will be evaluated at   0.000000,   0.000000,   0.000000 [a0]

Properties computed using the B3LYP density matrix

 Multipole Moments:

 ------------------------------------------------------------------------------------
     Multipole            Electronic (a.u.)      Nuclear  (a.u.)        Total (a.u.)
 ------------------------------------------------------------------------------------

 L = 1.  Multiply by 2.5417464519 to convert [e a0] to [Debye]
 Dipole X            :          0.0000000            0.0000000            0.0000000
 Dipole Y            :          0.0000000            0.0000000            0.0000000
 Dipole Z            :          0.0000000            0.0000000            0.0000000
 Magnitude           :                                                    0.0000000

 L = 2.  Multiply by 1.3450342976 to convert [e a0^2] to [Debye ang]
 Quadrupole XX       :        -10.2444209            0.0000000          -10.2444209
 Quadrupole XY       :          0.0000000            0.0000000            0.0000000
 Quadrupole XZ       :          0.0000000            0.0000000            0.0000000
 Quadrupole YY       :         -8.9560868            0.0000000           -8.9560868
 Quadrupole YZ       :          0.0000000            0.0000000            0.0000000
 Quadrupole ZZ       :        -26.7465252           13.9783296          -12.7681955
 Traceless XX        :          5.0712567           -4.6594432            0.4118135
 Traceless YY        :          6.3595908           -4.6594432            1.7001476
 Traceless ZZ        :        -11.4308475            9.3188864           -2.1119611

 ------------------------------------------------------------------------------------
  ==> Computing MBIS Charges <==

  Electron Count from Grid (Expected Number): 15.00000 (15.00000)
  Difference: -0.00000

  MBIS Charges: (a.u.)
   Center  Symbol  Z      Pop.       Charge
      1       N    7    7.500000   -0.500000
      2       N    7    7.500000   -0.500000

  MBIS Dipoles: [e a0]
   Center  Symbol  Z        X           Y           Z
      1       N    7   -0.000000    0.000000    0.259499
      2       N    7   -0.000000   -0.000000   -0.259499

  MBIS Quadrupoles: [e a0^2]
   Center  Symbol  Z      XX        XY        XZ        YY        YZ        ZZ
      1       N    7   -5.1222    0.0000   -0.0000   -4.4780   -0.0000   -5.3663
      2       N    7   -5.1222    0.0000    0.0000   -4.4780    0.0000   -5.3663

  MBIS Octupoles: [e a0^3]
   Center  Symbol  Z      XXX       XXY       XXZ       XYY       XYZ       XZZ       YYY       YYZ       YZZ       ZZZ
      1       N    7   -0.0000   -0.0000    0.6381   -0.0000   -0.0000   -0.0000   -0.0000    0.2982    0.0000    0.5197
      2       N    7   -0.0000   -0.0000   -0.6381   -0.0000   -0.0000   -0.0000   -0.0000   -0.2982    0.0000   -0.5197

  MBIS Radial Moments:
   Center  Symbol  Z      [a0^2]      [a0^3]      [a0^4]
      1       N    7   14.966529   33.873822   91.245981
      2       N    7   14.966529   33.873822   91.245981

  MBIS Valence Widths: [a0]
   Center  Symbol  Z     Width
      1       N    7    0.463863
      2       N    7    0.463863

*** tstop() called on Mac.lan at Sun Aug 10 17:32:19 2025
Module time:
	user time   =       3.73 seconds =       0.06 minutes
	system time =       2.27 seconds =       0.04 minutes
	total time  =          0 seconds =       0.00 minutes
Total time:
	user time   =      16.14 seconds =       0.27 minutes
	system time =       4.68 seconds =       0.08 minutes
	total time  =          2 seconds =       0.03 minutes

    Psi4 stopped on: Sunday, 10 August 2025 05:32PM
    Psi4 wall time for execution: 0:00:02.04

*** Psi4 exiting successfully. Buy a developer a beer!
