                               Psi4 1.9.1 release

  ==> Input File <==

--------------------------------------------------------------------------
molecule {
-1 1
N           0.000000           0.000000           0.000000
C           0.000000           0.000000           0.437164
}

set {
basis              cc-pvtz
reference          uks
maxiter            500
DAMPING_PERCENTAGE 1
E_CONVERGENCE      1.0E-8
D_CONVERGENCE      1.0E-8
DIIS_MAX_VECS      400
MBIS_MAXITER       8000
guess              read
}

E, wfn = energy('b3lyp', restart_file='last_wfn', return_wfn=True)
properties('b3lyp','MBIS_CHARGES', wfn=wfn)
wfn.to_file('last_wfn')
--------------------------------------------------------------------------

    Molecular point group: c2v
  Charge       = -1
  Multiplicity = 1
  Basis Set: CC-PVTZ
    Blend: CC-PVTZ
  Basis Set: (CC-PVTZ AUX)
    Blend: CC-PVTZ-JKFIT
  @DF-UKS Final Energy:   -85.17612036151739
    Total Energy =                        -85.1761203615173912
 Dipole X            :          0.0000000            0.0000000            0.0000000
 Dipole Y            :          0.0000000            0.0000000            0.0000000
 Dipole Z            :         -0.0016224            0.0005860           -0.0010364
 Magnitude           :                                                    0.0010364
    Molecular point group: c2v

    Geometry (in Angstrom), charge = -1, multiplicity = 1:

       Center              X                  Y                   Z               Mass
    ------------   -----------------  -----------------  -----------------  -----------------
         N            0.000000000000     0.000000000000    -0.201744147600    14.003074004430
         C            0.000000000000     0.000000000000     0.235419852400    12.000000000000

  Charge       = -1
  Multiplicity = 1
  Basis Set: CC-PVTZ
    Blend: CC-PVTZ
  Basis Set: (CC-PVTZ AUX)
    Blend: CC-PVTZ-JKFIT

    Orbital Energies [Eh]
    ---------------------

    Alpha Occupied:

       1A1   -15.207552     2A1   -10.990184     1B1    -0.819450
       1B2    -0.819450     3A1    -0.662869     4A1    -0.060997
       5A1     0.261229

    Alpha Virtual:

       2B1     0.329510     2B2     0.329510     6A1     0.364931
       7A1     0.483982     3B1     0.553130     3B2     0.553130
       8A1     0.765664     1A2     0.842979     9A1     0.842979
       4B1     0.891589     4B2     0.891589    10A1     1.169319
      11A1     1.386994     5B1     1.433348     5B2     1.433348
       6B1     1.503400     6B2     1.503400     2A2     1.555006
      12A1     1.555006    13A1     1.783209    14A1     2.240159
       7B1     2.489782     7B2     2.489782     8B2     2.821823
       8B1     2.821823     3A2     2.962425    15A1     2.962425
      16A1     3.166781     9B1     3.282697     9B2     3.282697
       4A2     3.447863    17A1     3.447864    10B1     3.601717
      10B2     3.601717    18A1     3.620166    19A1     4.642178
      11B1     4.649871    11B2     4.649871    20A1     4.660605
       5A2     4.660605    12B1     4.733218    12B2     4.733218
      21A1     5.212851    22A1     5.481904    13B2     6.588245
      13B1     6.588245    23A1     6.963130     6A2     6.963131
      24A1     7.920397    14B1     8.770712    14B2     8.770712
      25A1    11.087557    26A1    27.120831

    Beta Occupied:

       1A1   -15.207552     2A1   -10.990184     1B1    -0.819450
       1B2    -0.819450     3A1    -0.662869     4A1    -0.060997
       5A1     0.261229

    Beta Virtual:

       2B1     0.329510     2B2     0.329510     6A1     0.364931
       7A1     0.483982     3B1     0.553130     3B2     0.553130
       8A1     0.765664     1A2     0.842979     9A1     0.842979
       4B1     0.891589     4B2     0.891589    10A1     1.169319
      11A1     1.386994     5B1     1.433348     5B2     1.433348
       6B1     1.503400     6B2     1.503400     2A2     1.555006
      12A1     1.555006    13A1     1.783209    14A1     2.240159
       7B1     2.489782     7B2     2.489782     8B2     2.821823
       8B1     2.821823     3A2     2.962425    15A1     2.962425
      16A1     3.166781     9B1     3.282697     9B2     3.282697
       4A2     3.447863    17A1     3.447864    10B1     3.601717
      10B2     3.601717    18A1     3.620166    19A1     4.642178
      11B1     4.649871    11B2     4.649871    20A1     4.660605
       5A2     4.660605    12B1     4.733218    12B2     4.733218
      21A1     5.212851    22A1     5.481904    13B2     6.588245
      13B1     6.588245    23A1     6.963130     6A2     6.963131
      24A1     7.920397    14B1     8.770712    14B2     8.770712
      25A1    11.087557    26A1    27.120831

    Final Occupation by Irrep:
             A1    A2    B1    B2
    DOCC [     5,    0,    1,    1 ]
    SOCC [     0,    0,    0,    0 ]
    NA   [     5,    0,    1,    1 ]
    NB   [     5,    0,    1,    1 ]

  @DF-UKS Final Energy:   -85.17612036095272

   => Energetics <=

    Nuclear Repulsion Energy =             50.8400573883942855
    One-Electron Energy =                -207.5260975870714049
    Two-Electron Energy =                  82.5351065215808575
    DFT Exchange-Correlation Energy =     -11.0251866838564681
    Empirical Dispersion Energy =           0.0000000000000000
    VV10 Nonlocal Energy =                  0.0000000000000000
    Total Energy =                        -85.1761203609527229

  UHF NO Occupations:
  HONO-2 :    4 A1 2.0000000
  HONO-1 :    5 A1 2.0000000
  HONO-0 :    1 B2 2.0000000
  LUNO+0 :    6 A1 0.0000000
  LUNO+1 :    7 A1 0.0000000
  LUNO+2 :    8 A1 0.0000000
  LUNO+3 :    9 A1 0.0000000

Computation Completed

Properties will be evaluated at   0.000000,   0.000000,   0.000000 [a0]

Properties computed using the B3LYP density matrix

 Multipole Moments:

 ------------------------------------------------------------------------------------
     Multipole            Electronic (a.u.)      Nuclear  (a.u.)        Total (a.u.)
 ------------------------------------------------------------------------------------

 L = 1.  Multiply by 2.5417464519 to convert [e a0] to [Debye]
 Dipole X            :          0.0000000            0.0000000            0.0000000
 Dipole Y            :          0.0000000            0.0000000            0.0000000
 Dipole Z            :         -0.0016224            0.0005860           -0.0010364
 Magnitude           :                                                    0.0010364

 L = 2.  Multiply by 1.3450342976 to convert [e a0^2] to [Debye ang]
 Quadrupole XX       :        -10.3673356            0.0000000          -10.3673356
 Quadrupole XY       :          0.0000000            0.0000000            0.0000000
 Quadrupole XZ       :          0.0000000            0.0000000            0.0000000
 Quadrupole YY       :        -10.3673356            0.0000000          -10.3673356
 Quadrupole YZ       :          0.0000000            0.0000000            0.0000000
 Quadrupole ZZ       :        -17.9945760            2.2049181          -15.7896579
 Traceless XX        :          2.5424135           -0.7349727            1.8074408
 Traceless YY        :          2.5424135           -0.7349727            1.8074408
 Traceless ZZ        :         -5.0848269            1.4699454           -3.6148815

 ------------------------------------------------------------------------------------
  ==> Computing MBIS Charges <==

  Electron Count from Grid (Expected Number): 14.00000 (14.00000)
  Difference: -0.00000

  MBIS Charges: (a.u.)
   Center  Symbol  Z      Pop.       Charge
      1       N    7    6.973172    0.026828
      2       C    6    7.026827   -1.026827

  MBIS Dipoles: [e a0]
   Center  Symbol  Z        X           Y           Z
      1       N    7   -0.000000    0.000000   -0.103232
      2       C    6   -0.000000    0.000000    0.569237

  MBIS Quadrupoles: [e a0^2]
   Center  Symbol  Z      XX        XY        XZ        YY        YZ        ZZ
      1       N    7   -2.4017    0.0000   -0.0000   -2.4017   -0.0000   -3.2180
      2       C    6   -7.9657    0.0000    0.0000   -7.9657    0.0000   -12.9575

  MBIS Octupoles: [e a0^3]
   Center  Symbol  Z      XXX       XXY       XXZ       XYY       XYZ       XZZ       YYY       YYZ       YZZ       ZZZ
      1       N    7    0.0000   -0.0000    0.2426   -0.0000   -0.0000    0.0000    0.0000    0.2426   -0.0000    1.1980
      2       C    6   -0.0000    0.0000    1.8262    0.0000   -0.0000    0.0000    0.0000    1.8262   -0.0000   10.9849

  MBIS Radial Moments:
   Center  Symbol  Z      [a0^2]      [a0^3]      [a0^4]
      1       N    7    8.021359   14.143718   30.955425
      2       C    6   28.888838   97.763820   376.268857

  MBIS Valence Widths: [a0]
   Center  Symbol  Z     Width
      1       N    7    0.345919
      2       C    6    0.676192

*** tstop() called on Mac.lan at Sun Aug 10 17:40:07 2025
Module time:
	user time   =       4.25 seconds =       0.07 minutes
	system time =       3.29 seconds =       0.05 minutes
	total time  =          1 seconds =       0.02 minutes
Total time:
	user time   =      20.31 seconds =       0.34 minutes
	system time =       5.40 seconds =       0.09 minutes
	total time  =          2 seconds =       0.03 minutes

    Psi4 stopped on: Sunday, 10 August 2025 05:40PM
    Psi4 wall time for execution: 0:00:02.57

*** Psi4 exiting successfully. Buy a developer a beer!
