                               Psi4 1.9.1 release

  ==> Input File <==

--------------------------------------------------------------------------
molecule {
-1 2
O           0.000000           0.000000           0.000000
O           0.000000           0.000000           1.393767
}

set {
basis              cc-pvtz
reference          uks
maxiter            500
DAMPING_PERCENTAGE 1
E_CONVERGENCE      1.0E-8
D_CONVERGENCE      1.0E-8
DIIS_MAX_VECS      400
MBIS_MAXITER       8000
guess              read
}

E, wfn = energy('b3lyp', restart_file='last_wfn', return_wfn=True)
properties('b3lyp','MBIS_CHARGES', wfn=wfn)
wfn.to_file('last_wfn')
--------------------------------------------------------------------------

    Molecular point group: d2h
  Charge       = -1
  Multiplicity = 2
  Basis Set: CC-PVTZ
    Blend: CC-PVTZ
  Basis Set: (CC-PVTZ AUX)
    Blend: CC-PVTZ-JKFIT
  @DF-UKS Final Energy:  -150.37673925995006
    Total Energy =                       -150.3767392599500567
 Dipole X            :          0.0000000            0.0000000            0.0000000
 Dipole Y            :          0.0000000            0.0000000            0.0000000
 Dipole Z            :          0.0000000            0.0000000            0.0000000
 Magnitude           :                                                    0.0000000
    Molecular point group: d2h

    Geometry (in Angstrom), charge = -1, multiplicity = 2:

       Center              X                  Y                   Z               Mass
    ------------   -----------------  -----------------  -----------------  -----------------
         O            0.000000000000     0.000000000000    -0.696883500000    15.994914619570
         O            0.000000000000     0.000000000000     0.696883500000    15.994914619570

  Charge       = -1
  Multiplicity = 2
  Basis Set: CC-PVTZ
    Blend: CC-PVTZ
  Basis Set: (CC-PVTZ AUX)
    Blend: CC-PVTZ-JKFIT

    Orbital Energies [Eh]
    ---------------------

    Alpha Occupied:

       1Ag   -18.839821     1B1u  -18.839752     2Ag    -0.755222
       2B1u   -0.463627     3Ag    -0.113610     1B2u   -0.111504
       1B3u   -0.072952     1B3g    0.052853     1B2g    0.095203

    Alpha Virtual:

       3B1u    0.400106     4B1u    0.790128     2B2u    0.837322
       2B3u    0.860216     4Ag     0.886868     2B3g    0.923302
       2B2g    0.943838     5Ag     1.042787     5B1u    1.525565
       3B2u    1.590148     3B3u    1.613932     1B1g    1.646335
       6Ag     1.646418     1Au     1.926873     6B1u    1.927158
       7Ag     2.229291     3B3g    2.391638     3B2g    2.417473
       7B1u    2.559317     4B2u    3.781233     4B3u    3.815780
       8Ag     3.833078     4B3g    3.995300     4B2g    4.032535
       8B1u    4.810346     5B2u    5.012654     5B3u    5.041698
       9Ag     5.121142     2B1g    5.138093    10Ag     5.154041
       6B2u    5.394113     6B3u    5.394154     5B3g    5.486505
       5B2g    5.486521     2Au     5.762791     9B1u    5.762979
       6B3g    6.279286     6B2g    6.310518    11Ag     6.441106
       3B1g    6.441186    10B1u    6.558555     7B2u    6.582579
       3Au     6.606684    11B1u    6.609113     7B3u    6.616975
      12Ag     7.007404    12B1u    7.082502     7B3g    7.218658
       7B2g    7.249979    13Ag     7.880069    13B1u    9.651885

    Beta Occupied:

       1Ag   -18.825599     1B1u  -18.825488     2Ag    -0.723985
       2B1u   -0.420477     3Ag    -0.098061     1B3u   -0.061223
       1B2u   -0.025259     1B2g    0.109921

    Beta Virtual:

       1B3g    0.218132     3B1u    0.418196     4B1u    0.798464
       2B3u    0.865829     2B2u    0.875288     4Ag     0.893893
       2B2g    0.949591     2B3g    0.962577     5Ag     1.052948
       5B1u    1.542869     3B2u    1.614103     3B3u    1.615323
       1B1g    1.668266     6Ag     1.669495     1Au     1.955534
       6B1u    1.957023     7Ag     2.244553     3B2g    2.421116
       3B3g    2.422896     7B1u    2.569139     4B3u    3.826112
       4B2u    3.842087     8Ag     3.842470     4B2g    4.044089
       4B3g    4.058916     8B1u    4.827154     5B2u    5.043650
       5B3u    5.046064     9Ag     5.154228     2B1g    5.159914
      10Ag     5.161279     6B3u    5.429067     6B2u    5.429357
       5B2g    5.522454     5B3g    5.522747     2Au     5.787701
       9B1u    5.789157     6B2g    6.316449     6B3g    6.321982
       3B1g    6.492096    11Ag     6.495670    10B1u    6.576910
       7B3u    6.623944     7B2u    6.634771     3Au     6.656267
      11B1u    6.659809    12Ag     7.020060    12B1u    7.102436
       7B2g    7.254639     7B3g    7.259141    13Ag     7.908909
      13B1u    9.671163

    Final Occupation by Irrep:
             Ag   B1g   B2g   B3g    Au   B1u   B2u   B3u
    DOCC [     3,    0,    1,    0,    0,    2,    1,    1 ]
    SOCC [     0,    0,    0,    1,    0,    0,    0,    0 ]
    NA   [     3,    0,    1,    1,    0,    2,    1,    1 ]
    NB   [     3,    0,    1,    0,    0,    2,    1,    1 ]

  @DF-UKS Final Energy:  -150.37673925982278

   => Energetics <=

    Nuclear Repulsion Energy =             24.2991414511033774
    One-Electron Energy =                -261.3718731526038255
    Two-Electron Energy =                 100.7002669432346380
    DFT Exchange-Correlation Energy =     -14.0042745015569601
    Empirical Dispersion Energy =           0.0000000000000000
    VV10 Nonlocal Energy =                  0.0000000000000000
    Total Energy =                       -150.3767392598227843

  UHF NO Occupations:
  HONO-2 :    2B1u 1.9997221
  HONO-1 :    1B2u 1.9983768
  HONO-0 :    1B3g 1.0000000
  LUNO+0 :    2B2u 0.0016232
  LUNO+1 :    3B1u 0.0002779
  LUNO+2 :    4 Ag 0.0001490
  LUNO+3 :    2B3u 0.0000481

Computation Completed

Properties will be evaluated at   0.000000,   0.000000,   0.000000 [a0]

Properties computed using the B3LYP density matrix

 Multipole Moments:

 ------------------------------------------------------------------------------------
     Multipole            Electronic (a.u.)      Nuclear  (a.u.)        Total (a.u.)
 ------------------------------------------------------------------------------------

 L = 1.  Multiply by 2.5417464519 to convert [e a0] to [Debye]
 Dipole X            :          0.0000000            0.0000000            0.0000000
 Dipole Y            :          0.0000000            0.0000000            0.0000000
 Dipole Z            :          0.0000000            0.0000000            0.0000000
 Magnitude           :                                                    0.0000000

 L = 2.  Multiply by 1.3450342976 to convert [e a0^2] to [Debye ang]
 Quadrupole XX       :         -9.6868771            0.0000000           -9.6868771
 Quadrupole XY       :          0.0000000            0.0000000            0.0000000
 Quadrupole XZ       :          0.0000000            0.0000000            0.0000000
 Quadrupole YY       :         -8.8863667            0.0000000           -8.8863667
 Quadrupole YZ       :          0.0000000            0.0000000            0.0000000
 Quadrupole ZZ       :        -39.0807593           27.7484086          -11.3323507
 Traceless XX        :          9.5311239           -9.2494695            0.2816544
 Traceless YY        :         10.3316343           -9.2494695            1.0821648
 Traceless ZZ        :        -19.8627583           18.4989391           -1.3638192

 ------------------------------------------------------------------------------------
  ==> Computing MBIS Charges <==

  Electron Count from Grid (Expected Number): 17.00000 (17.00000)
  Difference: -0.00000

  MBIS Charges: (a.u.)
   Center  Symbol  Z      Pop.       Charge
      1       O    8    8.499999   -0.499999
      2       O    8    8.499999   -0.499999

  MBIS Dipoles: [e a0]
   Center  Symbol  Z        X           Y           Z
      1       O    8   -0.000000   -0.000000    0.178757
      2       O    8   -0.000000    0.000000   -0.178757

  MBIS Quadrupoles: [e a0^2]
   Center  Symbol  Z      XX        XY        XZ        YY        YZ        ZZ
      1       O    8   -4.8434   -0.0000    0.0000   -4.4432   -0.0000   -4.3282
      2       O    8   -4.8434   -0.0000    0.0000   -4.4432    0.0000   -4.3282

  MBIS Octupoles: [e a0^3]
   Center  Symbol  Z      XXX       XXY       XXZ       XYY       XYZ       XZZ       YYY       YYZ       YZZ       ZZZ
      1       O    8   -0.0000   -0.0000    0.2703   -0.0000   -0.0000   -0.0000    0.0000    0.1364    0.0000   -0.1446
      2       O    8   -0.0000   -0.0000   -0.2703   -0.0000    0.0000   -0.0000    0.0000   -0.1364   -0.0000    0.1446

  MBIS Radial Moments:
   Center  Symbol  Z      [a0^2]      [a0^3]      [a0^4]
      1       O    8   13.614844   27.322085   65.430737
      2       O    8   13.614844   27.322085   65.430737

  MBIS Valence Widths: [a0]
   Center  Symbol  Z     Width
      1       O    8    0.407944
      2       O    8    0.407944

*** tstop() called on Mac.lan at Sun Aug 10 17:28:21 2025
Module time:
	user time   =       4.29 seconds =       0.07 minutes
	system time =       1.47 seconds =       0.02 minutes
	total time  =          0 seconds =       0.00 minutes
Total time:
	user time   =      15.79 seconds =       0.26 minutes
	system time =       3.89 seconds =       0.06 minutes
	total time  =          2 seconds =       0.03 minutes

    Psi4 stopped on: Sunday, 10 August 2025 05:28PM
    Psi4 wall time for execution: 0:00:01.92

*** Psi4 exiting successfully. Buy a developer a beer!
