                               Psi4 1.9.1 release

  ==> Input File <==

--------------------------------------------------------------------------
molecule {
-1 2
O           0.000000           0.000000           0.000000
O           0.000000           0.000000           1.171592
}

set {
basis              cc-pvtz
reference          uks
maxiter            500
DAMPING_PERCENTAGE 1
E_CONVERGENCE      1.0E-8
D_CONVERGENCE      1.0E-8
DIIS_MAX_VECS      400
MBIS_MAXITER       8000
guess              read
}

E, wfn = energy('b3lyp', restart_file='last_wfn', return_wfn=True)
properties('b3lyp','MBIS_CHARGES', wfn=wfn)
wfn.to_file('last_wfn')
--------------------------------------------------------------------------

    Molecular point group: d2h
  Charge       = -1
  Multiplicity = 2
  Basis Set: CC-PVTZ
    Blend: CC-PVTZ
  Basis Set: (CC-PVTZ AUX)
    Blend: CC-PVTZ-JKFIT
  @DF-UKS Final Energy:  -150.34174895489119
    Total Energy =                       -150.3417489548911874
 Dipole X            :          0.0000000            0.0000000            0.0000000
 Dipole Y            :          0.0000000            0.0000000            0.0000000
 Dipole Z            :          0.0000000            0.0000000            0.0000000
 Magnitude           :                                                    0.0000000
    Molecular point group: d2h

    Geometry (in Angstrom), charge = -1, multiplicity = 2:

       Center              X                  Y                   Z               Mass
    ------------   -----------------  -----------------  -----------------  -----------------
         O            0.000000000000     0.000000000000    -0.585796000000    15.994914619570
         O            0.000000000000     0.000000000000     0.585796000000    15.994914619570

  Charge       = -1
  Multiplicity = 2
  Basis Set: CC-PVTZ
    Blend: CC-PVTZ
  Basis Set: (CC-PVTZ AUX)
    Blend: CC-PVTZ-JKFIT

    Orbital Energies [Eh]
    ---------------------

    Alpha Occupied:

       1Ag   -18.808067     1B1u  -18.807805     2Ag    -0.890066
       2B1u   -0.392533     1B2u   -0.160739     3Ag    -0.135238
       1B3u   -0.121605     1B3g    0.121258     1B2g    0.163449

    Alpha Virtual:

       3B1u    0.571557     2B2u    0.828641     2B3u    0.850569
       4Ag     0.863154     4B1u    0.891045     2B3g    0.936013
       2B2g    0.957133     5Ag     1.029351     5B1u    1.545703
       1B1g    1.595270     6Ag     1.595495     3B2u    1.698416
       3B3u    1.725318     1Au     2.015934     6B1u    2.016072
       7Ag     2.511583     7B1u    2.513543     3B3g    2.553668
       3B2g    2.579854     4B2u    3.812020     4B3u    3.847567
       8Ag     4.016553     4B3g    4.112297     4B2g    4.150124
       9Ag     4.965729     2B1g    4.965815     5B2u    5.054690
       5B3u    5.083338     8B1u    5.129765     6B2u    5.300155
       6B3u    5.300221    10Ag     5.349157     5B3g    5.583482
       5B2g    5.583497     9B1u    6.083628     2Au     6.178179
      10B1u    6.178669     3B1g    6.456092    11Ag     6.456126
       3Au     6.678841    11B1u    6.679355     6B3g    6.726199
       6B2g    6.759868     7B2u    6.845630     7B3u    6.880111
      12B1u    7.180943    12Ag     7.422270     7B3g    7.693512
       7B2g    7.723335    13Ag     7.976369    13B1u   13.400558

    Beta Occupied:

       1Ag   -18.793937     1B1u  -18.793607     2Ag    -0.863593
       2B1u   -0.350305     3Ag    -0.116384     1B3u   -0.110062
       1B2u   -0.079381     1B2g    0.178311

    Beta Virtual:

       1B3g    0.288250     3B1u    0.584587     2B3u    0.855467
       2B2u    0.860838     4Ag     0.868747     4B1u    0.906737
       2B2g    0.963422     2B3g    0.978601     5Ag     1.040568
       5B1u    1.563074     1B1g    1.615402     6Ag     1.616577
       3B3u    1.727363     3B2u    1.727521     1Au     2.045876
       6B1u    2.047439     7B1u    2.523567     7Ag     2.526394
       3B2g    2.583829     3B3g    2.586369     4B3u    3.858312
       4B2u    3.874228     8Ag     4.027662     4B2g    4.161649
       4B3g    4.174557     2B1g    4.984828     9Ag     4.985953
       5B2u    5.083113     5B3u    5.087376     8B1u    5.147903
       6B3u    5.333521     6B2u    5.333796    10Ag     5.364383
       5B2g    5.619435     5B3g    5.619720     9B1u    6.104372
       2Au     6.206034    10B1u    6.207805     3B1g    6.506425
      11Ag     6.509896     3Au     6.725206    11B1u    6.728452
       6B2g    6.766792     6B3g    6.777484     7B3u    6.886336
       7B2u    6.893758    12B1u    7.195806    12Ag     7.444628
       7B3g    7.724666     7B2g    7.726918    13Ag     7.994206
      13B1u   13.421349

    Final Occupation by Irrep:
             Ag   B1g   B2g   B3g    Au   B1u   B2u   B3u
    DOCC [     3,    0,    1,    0,    0,    2,    1,    1 ]
    SOCC [     0,    0,    0,    1,    0,    0,    0,    0 ]
    NA   [     3,    0,    1,    1,    0,    2,    1,    1 ]
    NB   [     3,    0,    1,    0,    0,    2,    1,    1 ]

  @DF-UKS Final Energy:  -150.34174895489451

   => Energetics <=

    Nuclear Repulsion Energy =             28.9071122736242643
    One-Electron Energy =                -270.3906295032327876
    Two-Electron Energy =                 105.2752461083211841
    DFT Exchange-Correlation Energy =     -14.1334778336071487
    Empirical Dispersion Energy =           0.0000000000000000
    VV10 Nonlocal Energy =                  0.0000000000000000
    Total Energy =                       -150.3417489548944843

  UHF NO Occupations:
  HONO-2 :    2B1u 1.9997146
  HONO-1 :    1B2u 1.9988873
  HONO-0 :    1B3g 1.0000000
  LUNO+0 :    2B2u 0.0011127
  LUNO+1 :    3B1u 0.0002854
  LUNO+2 :    4 Ag 0.0001411
  LUNO+3 :    2B2g 0.0000549

Computation Completed

Properties will be evaluated at   0.000000,   0.000000,   0.000000 [a0]

Properties computed using the B3LYP density matrix

 Multipole Moments:

 ------------------------------------------------------------------------------------
     Multipole            Electronic (a.u.)      Nuclear  (a.u.)        Total (a.u.)
 ------------------------------------------------------------------------------------

 L = 1.  Multiply by 2.5417464519 to convert [e a0] to [Debye]
 Dipole X            :          0.0000000            0.0000000            0.0000000
 Dipole Y            :          0.0000000            0.0000000            0.0000000
 Dipole Z            :          0.0000000            0.0000000            0.0000000
 Magnitude           :                                                    0.0000000

 L = 2.  Multiply by 1.3450342976 to convert [e a0^2] to [Debye ang]
 Quadrupole XX       :         -9.4562501            0.0000000           -9.4562501
 Quadrupole XY       :          0.0000000            0.0000000            0.0000000
 Quadrupole XZ       :          0.0000000            0.0000000            0.0000000
 Quadrupole YY       :         -8.6156623            0.0000000           -8.6156623
 Quadrupole YZ       :          0.0000000            0.0000000            0.0000000
 Quadrupole ZZ       :        -30.9029086           19.6069716          -11.2959370
 Traceless XX        :          6.8686902           -6.5356572            0.3330330
 Traceless YY        :          7.7092780           -6.5356572            1.1736208
 Traceless ZZ        :        -14.5779683           13.0713144           -1.5066539

 ------------------------------------------------------------------------------------
  ==> Computing MBIS Charges <==

  Electron Count from Grid (Expected Number): 17.00000 (17.00000)
  Difference:  0.00000

  MBIS Charges: (a.u.)
   Center  Symbol  Z      Pop.       Charge
      1       O    8    8.500001   -0.500001
      2       O    8    8.500001   -0.500001

  MBIS Dipoles: [e a0]
   Center  Symbol  Z        X           Y           Z
      1       O    8   -0.000000    0.000000    0.276185
      2       O    8   -0.000000    0.000000   -0.276185

  MBIS Quadrupoles: [e a0^2]
   Center  Symbol  Z      XX        XY        XZ        YY        YZ        ZZ
      1       O    8   -4.7281   -0.0000    0.0000   -4.3078   -0.0000   -4.4238
      2       O    8   -4.7281    0.0000   -0.0000   -4.3078    0.0000   -4.4238

  MBIS Octupoles: [e a0^3]
   Center  Symbol  Z      XXX       XXY       XXZ       XYY       XYZ       XZZ       YYY       YYZ       YZZ       ZZZ
      1       O    8   -0.0000   -0.0000    0.4732    0.0000   -0.0000   -0.0000   -0.0000    0.3056    0.0000    0.0455
      2       O    8   -0.0000   -0.0000   -0.4732    0.0000    0.0000   -0.0000    0.0000   -0.3056    0.0000   -0.0455

  MBIS Radial Moments:
   Center  Symbol  Z      [a0^2]      [a0^3]      [a0^4]
      1       O    8   13.459737   26.916615   64.337919
      2       O    8   13.459737   26.916615   64.337919

  MBIS Valence Widths: [a0]
   Center  Symbol  Z     Width
      1       O    8    0.405180
      2       O    8    0.405180

*** tstop() called on Mac.lan at Sun Aug 10 17:27:06 2025
Module time:
	user time   =       3.44 seconds =       0.06 minutes
	system time =       2.30 seconds =       0.04 minutes
	total time  =          0 seconds =       0.00 minutes
Total time:
	user time   =      16.61 seconds =       0.28 minutes
	system time =       4.48 seconds =       0.07 minutes
	total time  =          2 seconds =       0.03 minutes

    Psi4 stopped on: Sunday, 10 August 2025 05:27PM
    Psi4 wall time for execution: 0:00:02.05

*** Psi4 exiting successfully. Buy a developer a beer!
