                               Psi4 1.9.1 release

  ==> Input File <==

--------------------------------------------------------------------------
molecule {
-1 2
O           0.000000           0.000000           0.000000
O           0.000000           0.000000           1.711159
}

set {
basis              cc-pvtz
reference          uks
maxiter            500
DAMPING_PERCENTAGE 1
E_CONVERGENCE      1.0E-8
D_CONVERGENCE      1.0E-8
DIIS_MAX_VECS      400
MBIS_MAXITER       8000
guess              read
}

E, wfn = energy('b3lyp', restart_file='last_wfn', return_wfn=True)
properties('b3lyp','MBIS_CHARGES', wfn=wfn)
wfn.to_file('last_wfn')
--------------------------------------------------------------------------

    Molecular point group: d2h
  Charge       = -1
  Multiplicity = 2
  Basis Set: CC-PVTZ
    Blend: CC-PVTZ
  Basis Set: (CC-PVTZ AUX)
    Blend: CC-PVTZ-JKFIT
  @DF-UKS Final Energy:  -150.32725183472076
    Total Energy =                       -150.3272518347207551
 Dipole X            :          0.0000000            0.0000000            0.0000000
 Dipole Y            :          0.0000000            0.0000000            0.0000000
 Dipole Z            :          0.0000000            0.0000000            0.0000000
 Magnitude           :                                                    0.0000000
    Molecular point group: d2h

    Geometry (in Angstrom), charge = -1, multiplicity = 2:

       Center              X                  Y                   Z               Mass
    ------------   -----------------  -----------------  -----------------  -----------------
         O            0.000000000000     0.000000000000    -0.855579500000    15.994914619570
         O            0.000000000000     0.000000000000     0.855579500000    15.994914619570

  Charge       = -1
  Multiplicity = 2
  Basis Set: CC-PVTZ
    Blend: CC-PVTZ
  Basis Set: (CC-PVTZ AUX)
    Blend: CC-PVTZ-JKFIT

    Orbital Energies [Eh]
    ---------------------

    Alpha Occupied:

       1Ag   -18.872074     1B1u  -18.872049     2Ag    -0.666674
       2B1u   -0.537951     3Ag    -0.085533     1B2u   -0.083645
       1B3u   -0.045556     1B3g   -0.005732     1B2g    0.035768

    Alpha Virtual:

       3B1u    0.220533     4B1u    0.789884     2B2u    0.819670
       2B3u    0.842707     4Ag     0.904794     2B3g    0.909934
       2B2g    0.930160     5Ag     1.055511     5B1u    1.421433
       3B2u    1.554764     3B3u    1.575841     6Ag     1.705111
       1B1g    1.706384     7Ag     1.797138     1Au     1.836022
       6B1u    1.836321     3B3g    2.142161     3B2g    2.166750
       7B1u    2.629482     8Ag     3.756294     4B2u    3.821427
       4B3u    3.856143     4B3g    3.910778     4B2g    3.946494
       8B1u    4.221092     5B2u    5.178137     9Ag     5.202105
       5B3u    5.206521     2B1g    5.351099    10Ag     5.353525
       6B2u    5.424080     6B3u    5.424147     5B3g    5.434789
       5B2g    5.434832     9B1u    5.483536     2Au     5.483823
       6B3g    5.666212     6B2g    5.694286    10B1u    5.912480
       7B2u    6.391095     7B3u    6.424863    11Ag     6.429170
       3B1g    6.430224     3Au     6.522008    11B1u    6.522027
      12Ag     6.634378     7B3g    6.834740     7B2g    6.867716
      12B1u    7.461276    13Ag     7.516177    13B1u    8.242829

    Beta Occupied:

       1Ag   -18.858128     1B1u  -18.858082     2Ag    -0.631415
       2B1u   -0.495113     3Ag    -0.072626     1B3u   -0.033604
       1B2u    0.008351     1B2g    0.049942

    Beta Virtual:

       1B3g    0.153741     3B1u    0.237263     4B1u    0.797285
       2B3u    0.848611     2B2u    0.860796     4Ag     0.913472
       2B2g    0.935621     2B3g    0.947150     5Ag     1.065995
       5B1u    1.437317     3B2u    1.576500     3B3u    1.577382
       1B1g    1.730390     6Ag     1.731581     7Ag     1.808235
       1Au     1.863373     6B1u    1.864766     3B2g    2.170159
       3B3g    2.172236     7B1u    2.641787     8Ag     3.765354
       4B3u    3.866779     4B2u    3.882508     4B2g    3.957608
       4B3g    3.973204     8B1u    4.235244     5B2u    5.210600
       5B3u    5.210958     9Ag     5.221613     2B1g    5.374624
      10Ag     5.375984     6B3u    5.459061     6B2u    5.459337
       5B2g    5.470574     5B3g    5.470854     2Au     5.507877
       9B1u    5.509267     6B2g    5.698398     6B3g    5.699499
      10B1u    5.927739     7B3u    6.432164     7B2u    6.444538
       3B1g    6.480516    11Ag     6.483897     3Au     6.571906
      11B1u    6.575348    12Ag     6.647693     7B2g    6.874187
       7B3g    6.884854    12B1u    7.472545    13Ag     7.546107
      13B1u    8.271624

    Final Occupation by Irrep:
             Ag   B1g   B2g   B3g    Au   B1u   B2u   B3u
    DOCC [     3,    0,    1,    0,    0,    2,    1,    1 ]
    SOCC [     0,    0,    0,    1,    0,    0,    0,    0 ]
    NA   [     3,    0,    1,    1,    0,    2,    1,    1 ]
    NB   [     3,    0,    1,    0,    0,    2,    1,    1 ]

  @DF-UKS Final Energy:  -150.32725183443063

   => Energetics <=

    Nuclear Repulsion Energy =             19.7920482450082140
    One-Electron Energy =                -252.2165895285945965
    Two-Electron Energy =                  96.0042943883167936
    DFT Exchange-Correlation Energy =     -13.9070049391610162
    Empirical Dispersion Energy =           0.0000000000000000
    VV10 Nonlocal Energy =                  0.0000000000000000
    Total Energy =                       -150.3272518344306263

  UHF NO Occupations:
  HONO-2 :    2B1u 1.9997821
  HONO-1 :    1B2u 1.9979421
  HONO-0 :    1B3g 1.0000000
  LUNO+0 :    2B2u 0.0020579
  LUNO+1 :    3B1u 0.0002179
  LUNO+2 :    4 Ag 0.0001565
  LUNO+3 :    2B3u 0.0000554

Computation Completed

Properties will be evaluated at   0.000000,   0.000000,   0.000000 [a0]

Properties computed using the B3LYP density matrix

 Multipole Moments:

 ------------------------------------------------------------------------------------
     Multipole            Electronic (a.u.)      Nuclear  (a.u.)        Total (a.u.)
 ------------------------------------------------------------------------------------

 L = 1.  Multiply by 2.5417464519 to convert [e a0] to [Debye]
 Dipole X            :          0.0000000            0.0000000            0.0000000
 Dipole Y            :          0.0000000            0.0000000            0.0000000
 Dipole Z            :          0.0000000            0.0000000            0.0000000
 Magnitude           :                                                    0.0000000

 L = 2.  Multiply by 1.3450342976 to convert [e a0^2] to [Debye ang]
 Quadrupole XX       :         -9.8942085            0.0000000           -9.8942085
 Quadrupole XY       :          0.0000000            0.0000000            0.0000000
 Quadrupole XZ       :          0.0000000            0.0000000            0.0000000
 Quadrupole YY       :         -9.0988848            0.0000000           -9.0988848
 Quadrupole YZ       :          0.0000000            0.0000000            0.0000000
 Quadrupole ZZ       :        -53.4340201           41.8252415          -11.6087786
 Traceless XX        :         14.2481626          -13.9417472            0.3064155
 Traceless YY        :         15.0434863          -13.9417472            1.1017391
 Traceless ZZ        :        -29.2916489           27.8834943           -1.4081546

 ------------------------------------------------------------------------------------
  ==> Computing MBIS Charges <==

  Electron Count from Grid (Expected Number): 17.00000 (17.00000)
  Difference: -0.00000

  MBIS Charges: (a.u.)
   Center  Symbol  Z      Pop.       Charge
      1       O    8    8.500000   -0.500000
      2       O    8    8.500000   -0.500000

  MBIS Dipoles: [e a0]
   Center  Symbol  Z        X           Y           Z
      1       O    8   -0.000000   -0.000000    0.068358
      2       O    8   -0.000000   -0.000000   -0.068358

  MBIS Quadrupoles: [e a0^2]
   Center  Symbol  Z      XX        XY        XZ        YY        YZ        ZZ
      1       O    8   -4.9471   -0.0000    0.0000   -4.5494   -0.0000   -4.2763
      2       O    8   -4.9471   -0.0000   -0.0000   -4.5494    0.0000   -4.2763

  MBIS Octupoles: [e a0^3]
   Center  Symbol  Z      XXX       XXY       XXZ       XYY       XYZ       XZZ       YYY       YYZ       YZZ       ZZZ
      1       O    8   -0.0000   -0.0000    0.0749   -0.0000   -0.0000   -0.0000   -0.0000   -0.0257   -0.0000   -0.3215
      2       O    8   -0.0000   -0.0000   -0.0749    0.0000    0.0000    0.0000   -0.0000    0.0257   -0.0000    0.3215

  MBIS Radial Moments:
   Center  Symbol  Z      [a0^2]      [a0^3]      [a0^4]
      1       O    8   13.772853   27.788799   66.833282
      2       O    8   13.772853   27.788799   66.833282

  MBIS Valence Widths: [a0]
   Center  Symbol  Z     Width
      1       O    8    0.410520
      2       O    8    0.410520

*** tstop() called on Mac.lan at Sun Aug 10 17:28:46 2025
Module time:
	user time   =       3.22 seconds =       0.05 minutes
	system time =       2.31 seconds =       0.04 minutes
	total time  =          1 seconds =       0.02 minutes
Total time:
	user time   =      15.84 seconds =       0.26 minutes
	system time =       4.66 seconds =       0.08 minutes
	total time  =          2 seconds =       0.03 minutes

    Psi4 stopped on: Sunday, 10 August 2025 05:28PM
    Psi4 wall time for execution: 0:00:02.00

*** Psi4 exiting successfully. Buy a developer a beer!
