                               Psi4 1.9.1 release

  ==> Input File <==

--------------------------------------------------------------------------
molecule {
-1 2
C           0.000000           0.000000           0.000000
C           0.000000           0.000000           1.560387
}

set {
basis              cc-pvtz
reference          uks
maxiter            500
DAMPING_PERCENTAGE 1
E_CONVERGENCE      1.0E-8
D_CONVERGENCE      1.0E-8
DIIS_MAX_VECS      400
MBIS_MAXITER       8000
guess              read
}

E, wfn = energy('b3lyp', restart_file='last_wfn', return_wfn=True)
properties('b3lyp','MBIS_CHARGES', wfn=wfn)
wfn.to_file('last_wfn')
--------------------------------------------------------------------------

    Molecular point group: d2h
  Charge       = -1
  Multiplicity = 2
  Basis Set: CC-PVTZ
    Blend: CC-PVTZ
  Basis Set: (CC-PVTZ AUX)
    Blend: CC-PVTZ-JKFIT
  @DF-UKS Final Energy:   -75.98615323867422
    Total Energy =                        -75.9861532386742198
 Dipole X            :          0.0000000            0.0000000            0.0000000
 Dipole Y            :          0.0000000            0.0000000            0.0000000
 Dipole Z            :          0.0000000            0.0000000            0.0000000
 Magnitude           :                                                    0.0000000
    Molecular point group: d2h

    Geometry (in Angstrom), charge = -1, multiplicity = 2:

       Center              X                  Y                   Z               Mass
    ------------   -----------------  -----------------  -----------------  -----------------
         C            0.000000000000     0.000000000000    -0.780193500000    12.000000000000
         C            0.000000000000     0.000000000000     0.780193500000    12.000000000000

  Charge       = -1
  Multiplicity = 2
  Basis Set: CC-PVTZ
    Blend: CC-PVTZ
  Basis Set: (CC-PVTZ AUX)
    Blend: CC-PVTZ-JKFIT

    Orbital Energies [Eh]
    ---------------------

    Alpha Occupied:

       1Ag    -9.983563     1B1u   -9.983287     2Ag    -0.408660
       2B1u   -0.175772     3Ag    -0.043063     1B3u    0.009168
       1B2u    0.009168

    Alpha Virtual:

       1B2g    0.217569     1B3g    0.217569     3B1u    0.371698
       4Ag     0.514028     2B2u    0.539654     2B3u    0.539654
       4B1u    0.593947     2B3g    0.601670     2B2g    0.601670
       5Ag     0.608429     1B1g    0.860944     6Ag     0.860944
       5B1u    0.867901     3B2u    0.942344     3B3u    0.942344
       1Au     1.085661     6B1u    1.085661     3B3g    1.358069
       3B2g    1.358069     7Ag     1.374553     7B1u    1.378489
       4B2u    2.198232     4B3u    2.198232     8Ag     2.278544
       4B3g    2.356904     4B2g    2.356904     2B1g    2.702197
       9Ag     2.702198     5B3u    2.710147     5B2u    2.710147
       8B1u    2.799900    10Ag     2.824065     6B2u    2.885806
       6B3u    2.885806     5B3g    3.058017     5B2g    3.058017
      11Ag     3.216181     3B1g    3.216182     9B1u    3.225930
      10B1u    3.272378     2Au     3.272378     6B3g    3.363624
       6B2g    3.363624     3Au     3.462081    11B1u    3.462082
       7B2u    3.479932     7B3u    3.479932    12B1u    3.814387
      12Ag     4.061558    13Ag     4.170546     7B2g    4.223477
       7B3g    4.223477    13B1u    7.552443

    Beta Occupied:

       1Ag    -9.975791     1B1u   -9.975619     2Ag    -0.377312
       2B1u   -0.121423     1B3u    0.016532     1B2u    0.016532

    Beta Virtual:

       3Ag     0.088756     1B2g    0.228412     1B3g    0.228412
       3B1u    0.382492     4Ag     0.542227     2B2u    0.543631
       2B3u    0.543631     2B3g    0.606026     2B2g    0.606026
       5Ag     0.623688     4B1u    0.650048     1B1g    0.862328
       6Ag     0.862328     5B1u    0.877386     3B2u    0.966502
       3B3u    0.966502     1Au     1.089012     6B1u    1.089012
       3B3g    1.378993     3B2g    1.378993     7Ag     1.405796
       7B1u    1.413392     4B2u    2.206285     4B3u    2.206285
       8Ag     2.316560     4B3g    2.361142     4B2g    2.361142
       2B1g    2.722117     9Ag     2.722118     5B3u    2.739533
       5B2u    2.739533     8B1u    2.832314    10Ag     2.875714
       6B2u    2.886338     6B3u    2.886338     5B3g    3.058220
       5B2g    3.058220    11Ag     3.219707     3B1g    3.219707
       9B1u    3.269697    10B1u    3.272012     2Au     3.272013
       6B3g    3.404655     6B2g    3.404655     3Au     3.483337
      11B1u    3.483338     7B2u    3.519843     7B3u    3.519843
      12B1u    3.862692    12Ag     4.108643    13Ag     4.187951
       7B2g    4.253506     7B3g    4.253506    13B1u    7.571336

    Final Occupation by Irrep:
             Ag   B1g   B2g   B3g    Au   B1u   B2u   B3u
    DOCC [     2,    0,    0,    0,    0,    2,    1,    1 ]
    SOCC [     1,    0,    0,    0,    0,    0,    0,    0 ]
    NA   [     3,    0,    0,    0,    0,    2,    1,    1 ]
    NB   [     2,    0,    0,    0,    0,    2,    1,    1 ]

  @DF-UKS Final Energy:   -75.98615323881687

   => Energetics <=

    Nuclear Repulsion Energy =             12.2087530747949131
    One-Electron Energy =                -129.1545840970699430
    Two-Electron Energy =                  49.6124743665594750
    DFT Exchange-Correlation Energy =      -8.6527965831013045
    Empirical Dispersion Energy =           0.0000000000000000
    VV10 Nonlocal Energy =                  0.0000000000000000
    Total Energy =                        -75.9861532388168683

  UHF NO Occupations:
  HONO-2 :    2 Ag 1.9996245
  HONO-1 :    2B1u 1.9976055
  HONO-0 :    3 Ag 1.0000000
  LUNO+0 :    3B1u 0.0023945
  LUNO+1 :    4 Ag 0.0003755
  LUNO+2 :    2B2u 0.0001098
  LUNO+3 :    2B3u 0.0001098

Computation Completed

Properties will be evaluated at   0.000000,   0.000000,   0.000000 [a0]

Properties computed using the B3LYP density matrix

 Multipole Moments:

 ------------------------------------------------------------------------------------
     Multipole            Electronic (a.u.)      Nuclear  (a.u.)        Total (a.u.)
 ------------------------------------------------------------------------------------

 L = 1.  Multiply by 2.5417464519 to convert [e a0] to [Debye]
 Dipole X            :          0.0000000            0.0000000            0.0000000
 Dipole Y            :          0.0000000            0.0000000            0.0000000
 Dipole Z            :          0.0000000            0.0000000            0.0000000
 Magnitude           :                                                    0.0000000

 L = 2.  Multiply by 1.3450342976 to convert [e a0^2] to [Debye ang]
 Quadrupole XX       :        -12.2940374            0.0000000          -12.2940374
 Quadrupole XY       :          0.0000000            0.0000000            0.0000000
 Quadrupole XZ       :          0.0000000            0.0000000            0.0000000
 Quadrupole YY       :        -12.2940374            0.0000000          -12.2940374
 Quadrupole YZ       :          0.0000000            0.0000000            0.0000000
 Quadrupole ZZ       :        -39.8020780           26.0845672          -13.7175108
 Traceless XX        :          9.1693469           -8.6948557            0.4744911
 Traceless YY        :          9.1693469           -8.6948557            0.4744911
 Traceless ZZ        :        -18.3386937           17.3897115           -0.9489822

 ------------------------------------------------------------------------------------
  ==> Computing MBIS Charges <==

  Electron Count from Grid (Expected Number): 13.00000 (13.00000)
  Difference:  0.00000

  MBIS Charges: (a.u.)
   Center  Symbol  Z      Pop.       Charge
      1       C    6    6.500000   -0.500000
      2       C    6    6.500000   -0.500000

  MBIS Dipoles: [e a0]
   Center  Symbol  Z        X           Y           Z
      1       C    6   -0.000000    0.000000   -0.124350
      2       C    6   -0.000000    0.000000    0.124350

  MBIS Quadrupoles: [e a0^2]
   Center  Symbol  Z      XX        XY        XZ        YY        YZ        ZZ
      1       C    6   -6.1470    0.0000   -0.0000   -6.1470   -0.0000   -6.1386
      2       C    6   -6.1470    0.0000    0.0000   -6.1470    0.0000   -6.1386

  MBIS Octupoles: [e a0^3]
   Center  Symbol  Z      XXX       XXY       XXZ       XYY       XYZ       XZZ       YYY       YYZ       YZZ       ZZZ
      1       C    6   -0.0000   -0.0000   -0.4778   -0.0000    0.0000   -0.0000    0.0000   -0.4778    0.0000   -1.0263
      2       C    6   -0.0000   -0.0000    0.4778   -0.0000   -0.0000   -0.0000    0.0000    0.4778    0.0000    1.0263

  MBIS Radial Moments:
   Center  Symbol  Z      [a0^2]      [a0^3]      [a0^4]
      1       C    6   18.432606   50.197026   161.456088
      2       C    6   18.432606   50.197026   161.456088

  MBIS Valence Widths: [a0]
   Center  Symbol  Z     Width
      1       C    6    0.571013
      2       C    6    0.571013

*** tstop() called on Mac.lan at Sun Aug 10 17:31:27 2025
Module time:
	user time   =       3.83 seconds =       0.06 minutes
	system time =       1.96 seconds =       0.03 minutes
	total time  =          0 seconds =       0.00 minutes
Total time:
	user time   =      30.86 seconds =       0.51 minutes
	system time =       5.11 seconds =       0.09 minutes
	total time  =          3 seconds =       0.05 minutes

    Psi4 stopped on: Sunday, 10 August 2025 05:31PM
    Psi4 wall time for execution: 0:00:03.57

*** Psi4 exiting successfully. Buy a developer a beer!
