                               Psi4 1.9.1 release

  ==> Input File <==

--------------------------------------------------------------------------
molecule {
-1 3
C           0.000000           0.000000           0.000000
H           0.000000           0.000000           1.699943
}

set {
basis              cc-pvtz
reference          uks
maxiter            500
DAMPING_PERCENTAGE 1
E_CONVERGENCE      1.0E-8
D_CONVERGENCE      1.0E-8
DIIS_MAX_VECS      400
MBIS_MAXITER       8000
guess              read
}

E, wfn = energy('b3lyp', restart_file='last_wfn', return_wfn=True)
properties('b3lyp','MBIS_CHARGES', wfn=wfn)
wfn.to_file('last_wfn')
--------------------------------------------------------------------------

    Molecular point group: c2v
  Charge       = -1
  Multiplicity = 3
  Basis Set: CC-PVTZ
    Blend: CC-PVTZ
  Basis Set: (CC-PVTZ AUX)
    Blend: CC-PVTZ-JKFIT
  @DF-UKS Final Energy:   -38.48515807112955
    Total Energy =                        -38.4851580711295469
 Dipole X            :          0.0000000            0.0000000            0.0000000
 Dipole Y            :          0.0000000            0.0000000            0.0000000
 Dipole Z            :         -2.1060930            1.4701717           -0.6359213
 Magnitude           :                                                    0.6359213
    Molecular point group: c2v

    Geometry (in Angstrom), charge = -1, multiplicity = 3:

       Center              X                  Y                   Z               Mass
    ------------   -----------------  -----------------  -----------------  -----------------
         C            0.000000000000     0.000000000000    -0.131708806393    12.000000000000
         H            0.000000000000     0.000000000000     1.568234193607     1.007825032230

  Charge       = -1
  Multiplicity = 3
  Basis Set: CC-PVTZ
    Blend: CC-PVTZ
  Basis Set: (CC-PVTZ AUX)
    Blend: CC-PVTZ-JKFIT

    Orbital Energies [Eh]
    ---------------------

    Alpha Occupied:

       1A1    -9.946239     2A1    -0.271718     3A1     0.001338
       1B1     0.055751     1B2     0.055751

    Alpha Virtual:

       4A1     0.232875     5A1     0.504519     2B1     0.550802
       2B2     0.550802     6A1     0.571146     7A1     0.712007
       3B2     0.823851     3B1     0.823851     1A2     0.942956
       8A1     0.942956     9A1     1.061661     4B2     1.158116
       4B1     1.158116    10A1     1.458846     5B2     2.225205
       5B1     2.225205    11A1     2.339713    12A1     2.701467
       6B2     2.876051     6B1     2.876051    13A1     2.908304
      14A1     2.949489     2A2     2.949489     7B2     2.959397
       7B1     2.959397    15A1     3.209918     3A2     3.209919
       8B2     3.263443     8B1     3.263443    16A1     3.497136
      17A1     3.538698     4A2     3.538714     9B1     3.829729
       9B2     3.829729    18A1     3.959440    10B1     4.088680
      10B2     4.088680    19A1     4.274633    20A1     5.123558

    Beta Occupied:

       1A1    -9.920422     2A1    -0.178984     3A1     0.014419

    Beta Virtual:

       1B1     0.220383     1B2     0.220383     4A1     0.253914
       5A1     0.502652     6A1     0.592270     2B1     0.620878
       2B2     0.620878     7A1     0.760055     3B2     0.840431
       3B1     0.840431     8A1     1.019390     1A2     1.019390
       9A1     1.079808     4B2     1.183651     4B1     1.183651
      10A1     1.470008     5B2     2.305876     5B1     2.305876
      11A1     2.357776    12A1     2.701032     6B2     2.914896
       6B1     2.914896    13A1     2.940933    14A1     3.014717
       2A2     3.014718     7B2     3.056049     7B1     3.056049
      15A1     3.327074     3A2     3.327076     8B2     3.332016
       8B1     3.332016    16A1     3.530493    17A1     3.537582
       4A2     3.537597     9B1     3.828288     9B2     3.828288
      18A1     4.003766    10B1     4.084763    10B2     4.084763
      19A1     4.271611    20A1     5.137118

    Final Occupation by Irrep:
             A1    A2    B1    B2
    DOCC [     3,    0,    0,    0 ]
    SOCC [     0,    0,    1,    1 ]
    NA   [     3,    0,    1,    1 ]
    NB   [     3,    0,    0,    0 ]

  @DF-UKS Final Energy:   -38.48515807075917

   => Energetics <=

    Nuclear Repulsion Energy =              1.8677468974077367
    One-Electron Energy =                 -57.1439780372424764
    Two-Electron Energy =                  21.4642851498989948
    DFT Exchange-Correlation Energy =      -4.6732120808234248
    Empirical Dispersion Energy =           0.0000000000000000
    VV10 Nonlocal Energy =                  0.0000000000000000
    Total Energy =                        -38.4851580707591765

  UHF NO Occupations:
  HONO-2 :    3 A1 1.9943043
  HONO-1 :    1 B2 1.0000000
  HONO-0 :    1 B1 1.0000000
  LUNO+0 :    4 A1 0.0056957
  LUNO+1 :    5 A1 0.0011575
  LUNO+2 :    6 A1 0.0000011
  LUNO+3 :    7 A1 0.0000000

Computation Completed

Properties will be evaluated at   0.000000,   0.000000,   0.000000 [a0]

Properties computed using the B3LYP density matrix

 Multipole Moments:

 ------------------------------------------------------------------------------------
     Multipole            Electronic (a.u.)      Nuclear  (a.u.)        Total (a.u.)
 ------------------------------------------------------------------------------------

 L = 1.  Multiply by 2.5417464519 to convert [e a0] to [Debye]
 Dipole X            :          0.0000000            0.0000000            0.0000000
 Dipole Y            :          0.0000000            0.0000000            0.0000000
 Dipole Z            :         -2.1060930            1.4701717           -0.6359213
 Magnitude           :                                                    0.6359213

 L = 2.  Multiply by 1.3450342976 to convert [e a0^2] to [Debye ang]
 Quadrupole XX       :         -8.3137497            0.0000000           -8.3137497
 Quadrupole XY       :          0.0000000            0.0000000            0.0000000
 Quadrupole XZ       :          0.0000000            0.0000000            0.0000000
 Quadrupole YY       :         -8.3137497            0.0000000           -8.3137497
 Quadrupole YZ       :          0.0000000            0.0000000            0.0000000
 Quadrupole ZZ       :        -20.3791859            9.1542167          -11.2249692
 Traceless XX        :          4.0218121           -3.0514056            0.9704065
 Traceless YY        :          4.0218121           -3.0514056            0.9704065
 Traceless ZZ        :         -8.0436241            6.1028111           -1.9408130

 ------------------------------------------------------------------------------------
  ==> Computing MBIS Charges <==

  Electron Count from Grid (Expected Number):  8.00000 ( 8.00000)
  Difference: -0.00000

  MBIS Charges: (a.u.)
   Center  Symbol  Z      Pop.       Charge
      1       C    6    6.678303   -0.678303
      2       H    1    1.321697   -0.321697

  MBIS Dipoles: [e a0]
   Center  Symbol  Z        X           Y           Z
      1       C    6   -0.000000    0.000000    0.166397
      2       H    1    0.000000   -0.000000   -0.017783

  MBIS Quadrupoles: [e a0^2]
   Center  Symbol  Z      XX        XY        XZ        YY        YZ        ZZ
      1       C    6   -6.6621   -0.0000    0.0000   -6.6621    0.0000   -6.4990
      2       H    1   -1.6516   -0.0000    0.0000   -1.6516   -0.0000   -1.6704

  MBIS Octupoles: [e a0^3]
   Center  Symbol  Z      XXX       XXY       XXZ       XYY       XYZ       XZZ       YYY       YYZ       YZZ       ZZZ
      1       C    6   -0.0000   -0.0000    0.0890   -0.0000    0.0000   -0.0000   -0.0000    0.0890   -0.0000   -0.8011
      2       H    1    0.0000    0.0000   -0.1007    0.0000   -0.0000    0.0000   -0.0000   -0.1007   -0.0000   -0.1342

  MBIS Radial Moments:
   Center  Symbol  Z      [a0^2]      [a0^3]      [a0^4]
      1       C    6   19.823226   55.118955   181.100510
      2       H    1    4.973676   13.789525   44.892275

  MBIS Valence Widths: [a0]
   Center  Symbol  Z     Width
      1       C    6    0.581631
      2       H    1    0.559151

*** tstop() called on Mac.lan at Sun Aug 10 17:36:34 2025
Module time:
	user time   =       2.82 seconds =       0.05 minutes
	system time =       1.25 seconds =       0.02 minutes
	total time  =          0 seconds =       0.00 minutes
Total time:
	user time   =      13.19 seconds =       0.22 minutes
	system time =       3.44 seconds =       0.06 minutes
	total time  =          1 seconds =       0.02 minutes

    Psi4 stopped on: Sunday, 10 August 2025 05:36PM
    Psi4 wall time for execution: 0:00:01.62

*** Psi4 exiting successfully. Buy a developer a beer!
