                               Psi4 1.9.1 release

  ==> Input File <==

--------------------------------------------------------------------------
molecule {
-1 2
C           0.000000           0.000000           0.000000
C           0.000000           0.000000           1.648856
}

set {
basis              cc-pvtz
reference          uks
maxiter            500
DAMPING_PERCENTAGE 1
E_CONVERGENCE      1.0E-8
D_CONVERGENCE      1.0E-8
DIIS_MAX_VECS      400
MBIS_MAXITER       8000
guess              read
}

E, wfn = energy('b3lyp', restart_file='last_wfn', return_wfn=True)
properties('b3lyp','MBIS_CHARGES', wfn=wfn)
wfn.to_file('last_wfn')
--------------------------------------------------------------------------

    Molecular point group: d2h
  Charge       = -1
  Multiplicity = 2
  Basis Set: CC-PVTZ
    Blend: CC-PVTZ
  Basis Set: (CC-PVTZ AUX)
    Blend: CC-PVTZ-JKFIT
  @DF-UKS Final Energy:   -75.95504080537422
    Total Energy =                        -75.9550408053742103
 Dipole X            :          0.0000000            0.0000000            0.0000000
 Dipole Y            :          0.0000000            0.0000000            0.0000000
 Dipole Z            :          0.0000000            0.0000000            0.0000000
 Magnitude           :                                                    0.0000000
    Molecular point group: d2h

    Geometry (in Angstrom), charge = -1, multiplicity = 2:

       Center              X                  Y                   Z               Mass
    ------------   -----------------  -----------------  -----------------  -----------------
         C            0.000000000000     0.000000000000    -0.824428000000    12.000000000000
         C            0.000000000000     0.000000000000     0.824428000000    12.000000000000

  Charge       = -1
  Multiplicity = 2
  Basis Set: CC-PVTZ
    Blend: CC-PVTZ
  Basis Set: (CC-PVTZ AUX)
    Blend: CC-PVTZ-JKFIT

    Orbital Energies [Eh]
    ---------------------

    Alpha Occupied:

       1Ag    -9.996939     1B1u   -9.996739     2Ag    -0.393742
       2B1u   -0.189315     3Ag    -0.042812     1B3u    0.013620
       1B2u    0.013620

    Alpha Virtual:

       1B2g    0.200501     1B3g    0.200501     3B1u    0.356489
       4Ag     0.516592     2B3u    0.540893     2B2u    0.540893
       4B1u    0.544429     2B2g    0.595468     2B3g    0.595468
       5Ag     0.608106     1B1g    0.862532     6Ag     0.862532
       5B1u    0.875923     3B3u    0.916809     3B2u    0.916809
       1Au     1.068083     6B1u    1.068083     3B2g    1.336736
       3B3g    1.336736     7Ag     1.340723     7B1u    1.352721
       4B3u    2.181354     4B2u    2.181354     8Ag     2.255948
       4B2g    2.329080     4B3g    2.329080     5B3u    2.705112
       5B2u    2.705112     2B1g    2.712651     9Ag     2.712651
      10Ag     2.773350     8B1u    2.805918     6B2u    2.900672
       6B3u    2.900672     5B3g    3.030875     5B2g    3.030875
      11Ag     3.209793     3B1g    3.209798     9B1u    3.237129
       2Au     3.237131    10B1u    3.242754     6B2g    3.350093
       6B3g    3.350093    11B1u    3.395176     3Au     3.395178
       7B3u    3.413838     7B2u    3.413838    12B1u    3.724980
      12Ag     3.901564     7B3g    4.070870     7B2g    4.070870
      13Ag     4.213955    13B1u    6.702082

    Beta Occupied:

       1Ag    -9.989376     1B1u   -9.989264     2Ag    -0.362276
       2B1u   -0.137980     1B3u    0.020840     1B2u    0.020840

    Beta Virtual:

       3Ag     0.088442     1B2g    0.210593     1B3g    0.210593
       3B1u    0.370435     2B3u    0.544784     2B2u    0.544784
       4Ag     0.545779     2B2g    0.599426     2B3g    0.599426
       4B1u    0.600974     5Ag     0.622263     1B1g    0.863928
       6Ag     0.863928     5B1u    0.885353     3B3u    0.941236
       3B2u    0.941236     1Au     1.070762     6B1u    1.070762
       3B2g    1.357795     3B3g    1.357795     7Ag     1.371725
       7B1u    1.388727     4B3u    2.190222     4B2u    2.190222
       8Ag     2.297181     4B2g    2.333055     4B3g    2.333055
       2B1g    2.733498     9Ag     2.733498     5B2u    2.733911
       5B3u    2.733911    10Ag     2.820908     8B1u    2.836738
       6B2u    2.900763     6B3u    2.900763     5B3g    3.030601
       5B2g    3.030601    11Ag     3.211959     3B1g    3.211964
       9B1u    3.236534     2Au     3.236537    10B1u    3.289495
       6B2g    3.388491     6B3g    3.388491    11B1u    3.415828
       3Au     3.415830     7B3u    3.453472     7B2u    3.453472
      12B1u    3.771287    12Ag     3.949248     7B3g    4.102657
       7B2g    4.102657    13Ag     4.232970    13B1u    6.722476

    Final Occupation by Irrep:
             Ag   B1g   B2g   B3g    Au   B1u   B2u   B3u
    DOCC [     2,    0,    0,    0,    0,    2,    1,    1 ]
    SOCC [     1,    0,    0,    0,    0,    0,    0,    0 ]
    NA   [     3,    0,    0,    0,    0,    2,    1,    1 ]
    NB   [     2,    0,    0,    0,    0,    2,    1,    1 ]

  @DF-UKS Final Energy:   -75.95504080550090

   => Energetics <=

    Nuclear Repulsion Energy =             11.5536951584128609
    One-Electron Energy =                -127.7644470180664769
    Two-Electron Energy =                  48.8808520737415080
    DFT Exchange-Correlation Energy =      -8.6251410195887903
    Empirical Dispersion Energy =           0.0000000000000000
    VV10 Nonlocal Energy =                  0.0000000000000000
    Total Energy =                        -75.9550408055009001

  UHF NO Occupations:
  HONO-2 :    2 Ag 1.9995996
  HONO-1 :    2B1u 1.9973065
  HONO-0 :    3 Ag 1.0000000
  LUNO+0 :    3B1u 0.0026935
  LUNO+1 :    4 Ag 0.0004004
  LUNO+2 :    2B3u 0.0001065
  LUNO+3 :    2B2u 0.0001065

Computation Completed

Properties will be evaluated at   0.000000,   0.000000,   0.000000 [a0]

Properties computed using the B3LYP density matrix

 Multipole Moments:

 ------------------------------------------------------------------------------------
     Multipole            Electronic (a.u.)      Nuclear  (a.u.)        Total (a.u.)
 ------------------------------------------------------------------------------------

 L = 1.  Multiply by 2.5417464519 to convert [e a0] to [Debye]
 Dipole X            :          0.0000000            0.0000000            0.0000000
 Dipole Y            :          0.0000000            0.0000000            0.0000000
 Dipole Z            :          0.0000000            0.0000000            0.0000000
 Magnitude           :                                                    0.0000000

 L = 2.  Multiply by 1.3450342976 to convert [e a0^2] to [Debye ang]
 Quadrupole XX       :        -12.4718354            0.0000000          -12.4718354
 Quadrupole XY       :          0.0000000            0.0000000            0.0000000
 Quadrupole XZ       :          0.0000000            0.0000000            0.0000000
 Quadrupole YY       :        -12.4718354            0.0000000          -12.4718354
 Quadrupole YZ       :          0.0000000            0.0000000            0.0000000
 Quadrupole ZZ       :        -42.9647635           29.1262416          -13.8385219
 Traceless XX        :         10.1643094           -9.7087472            0.4555622
 Traceless YY        :         10.1643094           -9.7087472            0.4555622
 Traceless ZZ        :        -20.3286187           19.4174944           -0.9111244

 ------------------------------------------------------------------------------------
  ==> Computing MBIS Charges <==

  Electron Count from Grid (Expected Number): 13.00000 (13.00000)
  Difference:  0.00000

  MBIS Charges: (a.u.)
   Center  Symbol  Z      Pop.       Charge
      1       C    6    6.500000   -0.500000
      2       C    6    6.500000   -0.500000

  MBIS Dipoles: [e a0]
   Center  Symbol  Z        X           Y           Z
      1       C    6   -0.000000   -0.000000   -0.137425
      2       C    6   -0.000000    0.000000    0.137425

  MBIS Quadrupoles: [e a0^2]
   Center  Symbol  Z      XX        XY        XZ        YY        YZ        ZZ
      1       C    6   -6.2359    0.0000   -0.0000   -6.2359   -0.0000   -6.1339
      2       C    6   -6.2359    0.0000    0.0000   -6.2359    0.0000   -6.1339

  MBIS Octupoles: [e a0^3]
   Center  Symbol  Z      XXX       XXY       XXZ       XYY       XYZ       XZZ       YYY       YYZ       YZZ       ZZZ
      1       C    6   -0.0000   -0.0000   -0.5622   -0.0000    0.0000   -0.0000    0.0000   -0.5622    0.0000   -1.2537
      2       C    6   -0.0000   -0.0000    0.5622   -0.0000   -0.0000   -0.0000    0.0000    0.5622    0.0000    1.2537

  MBIS Radial Moments:
   Center  Symbol  Z      [a0^2]      [a0^3]      [a0^4]
      1       C    6   18.605703   50.914190   164.467441
      2       C    6   18.605703   50.914190   164.467441

  MBIS Valence Widths: [a0]
   Center  Symbol  Z     Width
      1       C    6    0.573883
      2       C    6    0.573883

*** tstop() called on Mac.lan at Sun Aug 10 17:31:35 2025
Module time:
	user time   =       4.46 seconds =       0.07 minutes
	system time =       2.25 seconds =       0.04 minutes
	total time  =          1 seconds =       0.02 minutes
Total time:
	user time   =      18.07 seconds =       0.30 minutes
	system time =       4.42 seconds =       0.07 minutes
	total time  =          2 seconds =       0.03 minutes

    Psi4 stopped on: Sunday, 10 August 2025 05:31PM
    Psi4 wall time for execution: 0:00:02.18

*** Psi4 exiting successfully. Buy a developer a beer!
