                               Psi4 1.9.1 release

  ==> Input File <==

--------------------------------------------------------------------------
molecule {
-1 3
O           0.000000           0.000000           0.000000
N           0.000000           0.000000           1.724790
}

set {
basis              cc-pvtz
reference          uks
maxiter            500
DAMPING_PERCENTAGE 1
E_CONVERGENCE      1.0E-8
D_CONVERGENCE      1.0E-8
DIIS_MAX_VECS      400
MBIS_MAXITER       8000
guess              read
}

E, wfn = energy('b3lyp', restart_file='last_wfn', return_wfn=True)
properties('b3lyp','MBIS_CHARGES', wfn=wfn)
wfn.to_file('last_wfn')
--------------------------------------------------------------------------

    Molecular point group: c2v
  Charge       = -1
  Multiplicity = 3
  Basis Set: CC-PVTZ
    Blend: CC-PVTZ
  Basis Set: (CC-PVTZ AUX)
    Blend: CC-PVTZ-JKFIT
  @DF-UKS Final Energy:  -129.84119278022092
    Total Energy =                       -129.8411927802209220
 Dipole X            :          0.0000000            0.0000000            0.0000000
 Dipole Y            :          0.0000000            0.0000000            0.0000000
 Dipole Z            :          0.1710102           -0.0065398            0.1644704
 Magnitude           :                                                    0.1644704
    Molecular point group: c2v

    Geometry (in Angstrom), charge = -1, multiplicity = 3:

       Center              X                  Y                   Z               Mass
    ------------   -----------------  -----------------  -----------------  -----------------
         O            0.000000000000     0.000000000000    -0.805132714557    15.994914619570
         N            0.000000000000     0.000000000000     0.919657285443    14.003074004430

  Charge       = -1
  Multiplicity = 3
  Basis Set: CC-PVTZ
    Blend: CC-PVTZ
  Basis Set: (CC-PVTZ AUX)
    Blend: CC-PVTZ-JKFIT

    Orbital Energies [Eh]
    ---------------------

    Alpha Occupied:

       1A1   -18.842569     2A1   -14.113685     3A1    -0.612694
       4A1    -0.434168     5A1    -0.060582     1B2    -0.058605
       1B1    -0.058605     2B2     0.030572     2B1     0.030572

    Alpha Virtual:

       6A1     0.258660     7A1     0.684029     3B1     0.706713
       3B2     0.706713     8A1     0.811027     4B2     0.897588
       4B1     0.897588     9A1     0.901726     1A2     1.282809
      10A1     1.282809     5B2     1.297045     5B1     1.297045
      11A1     1.356344    12A1     1.653206     2A2     1.800527
      13A1     1.800528     6B1     2.021844     6B2     2.021844
      14A1     2.318715     7B2     3.070171     7B1     3.070171
      15A1     3.301570    16A1     3.817382     8B1     3.880023
       8B2     3.880023     9B1     4.132509     9B2     4.132509
      17A1     4.140511     3A2     4.140512    10B2     4.206438
      10B1     4.206438    18A1     4.482606     4A2     4.653365
      19A1     4.653380    11B2     4.753688    11B1     4.753688
      20A1     5.138949    12B1     5.451208    12B2     5.451208
      21A1     5.461120     5A2     5.461121    22A1     5.628264
      13B2     5.644949    13B1     5.644949    23A1     6.018782
       6A2     6.504086    24A1     6.504096    14B1     6.702077
      14B2     6.702077    25A1     7.197344    26A1     8.165594

    Beta Occupied:

       1A1   -18.830553     2A1   -14.079991     3A1    -0.575782
       4A1    -0.336909     5A1    -0.040814     1B2     0.020983
       1B1     0.020983

    Beta Virtual:

       2B1     0.193484     2B2     0.193484     6A1     0.288751
       7A1     0.704076     3B1     0.768881     3B2     0.768881
       8A1     0.837425     9A1     0.915475     4B2     0.920252
       4B1     0.920252     5B2     1.327432     5B1     1.327432
      10A1     1.352996     1A2     1.352997    11A1     1.373831
      12A1     1.680007     2A2     1.825554    13A1     1.825555
       6B1     2.041569     6B2     2.041569    14A1     2.334532
       7B2     3.161585     7B1     3.161585    15A1     3.325040
      16A1     3.845084     8B1     3.915146     8B2     3.915146
      17A1     4.208507     3A2     4.208508     9B1     4.231293
       9B2     4.231293    10B2     4.254410    10B1     4.254410
      18A1     4.517944     4A2     4.786980    19A1     4.786994
      11B1     4.828645    11B2     4.828645    20A1     5.168026
      21A1     5.480810     5A2     5.480812    12B1     5.484285
      12B2     5.484285    13B2     5.660237    13B1     5.660237
      22A1     5.696986    23A1     6.032426     6A2     6.553260
      24A1     6.553270    14B1     6.724242    14B2     6.724242
      25A1     7.205341    26A1     8.191131

    Final Occupation by Irrep:
             A1    A2    B1    B2
    DOCC [     5,    0,    1,    1 ]
    SOCC [     0,    0,    1,    1 ]
    NA   [     5,    0,    2,    2 ]
    NB   [     5,    0,    1,    1 ]

  @DF-UKS Final Energy:  -129.84119278059913

   => Energetics <=

    Nuclear Repulsion Energy =             17.1811778810869740
    One-Electron Energy =                -217.0951690797669755
    Two-Electron Energy =                  82.5952210745212909
    DFT Exchange-Correlation Energy =     -12.5224226564404244
    Empirical Dispersion Energy =           0.0000000000000000
    VV10 Nonlocal Energy =                  0.0000000000000000
    Total Energy =                       -129.8411927805991297

  UHF NO Occupations:
  HONO-2 :    5 A1 1.9962652
  HONO-1 :    2 B2 1.0000000
  HONO-0 :    2 B1 1.0000000
  LUNO+0 :    6 A1 0.0037348
  LUNO+1 :    3 B1 0.0016691
  LUNO+2 :    3 B2 0.0016691
  LUNO+3 :    7 A1 0.0006713

Computation Completed

Properties will be evaluated at   0.000000,   0.000000,   0.000000 [a0]

Properties computed using the B3LYP density matrix

 Multipole Moments:

 ------------------------------------------------------------------------------------
     Multipole            Electronic (a.u.)      Nuclear  (a.u.)        Total (a.u.)
 ------------------------------------------------------------------------------------

 L = 1.  Multiply by 2.5417464519 to convert [e a0] to [Debye]
 Dipole X            :          0.0000000            0.0000000            0.0000000
 Dipole Y            :          0.0000000            0.0000000            0.0000000
 Dipole Z            :          0.1710100           -0.0065398            0.1644701
 Magnitude           :                                                    0.1644701

 L = 2.  Multiply by 1.3450342976 to convert [e a0^2] to [Debye ang]
 Quadrupole XX       :         -9.9002553            0.0000000           -9.9002553
 Quadrupole XY       :          0.0000000            0.0000000            0.0000000
 Quadrupole XZ       :          0.0000000            0.0000000            0.0000000
 Quadrupole YY       :         -9.9002553            0.0000000           -9.9002553
 Quadrupole YZ       :          0.0000000            0.0000000            0.0000000
 Quadrupole ZZ       :        -52.2638437           39.6613036          -12.6025401
 Traceless XX        :         14.1211962          -13.2204345            0.9007616
 Traceless YY        :         14.1211962          -13.2204345            0.9007616
 Traceless ZZ        :        -28.2423923           26.4408691           -1.8015232

 ------------------------------------------------------------------------------------
  ==> Computing MBIS Charges <==

  Electron Count from Grid (Expected Number): 16.00000 (16.00000)
  Difference: -0.00000

  MBIS Charges: (a.u.)
   Center  Symbol  Z      Pop.       Charge
      1       O    8    8.620788   -0.620788
      2       N    7    7.379211   -0.379211

  MBIS Dipoles: [e a0]
   Center  Symbol  Z        X           Y           Z
      1       O    8    0.000000    0.000000    0.028429
      2       N    7    0.000000   -0.000000   -0.149445

  MBIS Quadrupoles: [e a0^2]
   Center  Symbol  Z      XX        XY        XZ        YY        YZ        ZZ
      1       O    8   -4.8958   -0.0000    0.0000   -4.8958   -0.0000   -4.5003
      2       N    7   -5.0045   -0.0000   -0.0000   -5.0045   -0.0000   -4.9138

  MBIS Octupoles: [e a0^3]
   Center  Symbol  Z      XXX       XXY       XXZ       XYY       XYZ       XZZ       YYY       YYZ       YZZ       ZZZ
      1       O    8    0.0000   -0.0000   -0.0061    0.0000   -0.0000    0.0000   -0.0000   -0.0061   -0.0000   -0.3571
      2       N    7   -0.0000   -0.0000   -0.0369   -0.0000    0.0000    0.0000   -0.0000   -0.0369   -0.0000    0.2335

  MBIS Radial Moments:
   Center  Symbol  Z      [a0^2]      [a0^3]      [a0^4]
      1       O    8   14.291906   29.061170   70.303437
      2       N    7   14.922797   33.834897   90.922863

  MBIS Valence Widths: [a0]
   Center  Symbol  Z     Width
      1       O    8    0.414907
      2       N    7    0.469732

*** tstop() called on Mac.lan at Sun Aug 10 17:47:30 2025
Module time:
	user time   =       4.74 seconds =       0.08 minutes
	system time =       1.84 seconds =       0.03 minutes
	total time  =          0 seconds =       0.00 minutes
Total time:
	user time   =      20.67 seconds =       0.34 minutes
	system time =       3.97 seconds =       0.07 minutes
	total time  =          2 seconds =       0.03 minutes

    Psi4 stopped on: Sunday, 10 August 2025 05:47PM
    Psi4 wall time for execution: 0:00:02.37

*** Psi4 exiting successfully. Buy a developer a beer!
