                               Psi4 1.9.1 release

  ==> Input File <==

--------------------------------------------------------------------------
molecule {
-1 3
O           0.000000           0.000000           0.000000
N           0.000000           0.000000           0.801535
}

set {
basis              cc-pvtz
reference          uks
maxiter            500
DAMPING_PERCENTAGE 1
E_CONVERGENCE      1.0E-8
D_CONVERGENCE      1.0E-8
DIIS_MAX_VECS      400
MBIS_MAXITER       8000
guess              read
}

E, wfn = energy('b3lyp', restart_file='last_wfn', return_wfn=True)
properties('b3lyp','MBIS_CHARGES', wfn=wfn)
wfn.to_file('last_wfn')
--------------------------------------------------------------------------

    Molecular point group: c2v
  Charge       = -1
  Multiplicity = 3
  Basis Set: CC-PVTZ
    Blend: CC-PVTZ
  Basis Set: (CC-PVTZ AUX)
    Blend: CC-PVTZ-JKFIT
  @DF-UKS Final Energy:  -129.14154035868350
    Total Energy =                       -129.1415403586834998
 Dipole X            :          0.0000000            0.0000000            0.0000000
 Dipole Y            :          0.0000000            0.0000000            0.0000000
 Dipole Z            :         -0.9999030           -0.0030391           -1.0029421
 Magnitude           :                                                    1.0029421
    Molecular point group: c2v

    Geometry (in Angstrom), charge = -1, multiplicity = 3:

       Center              X                  Y                   Z               Mass
    ------------   -----------------  -----------------  -----------------  -----------------
         O            0.000000000000     0.000000000000    -0.374156883077    15.994914619570
         N            0.000000000000     0.000000000000     0.427378116923    14.003074004430

  Charge       = -1
  Multiplicity = 3
  Basis Set: CC-PVTZ
    Blend: CC-PVTZ
  Basis Set: (CC-PVTZ AUX)
    Blend: CC-PVTZ-JKFIT

    Orbital Energies [Eh]
    ---------------------

    Alpha Occupied:

       1A1   -18.840967     2A1   -13.979838     3A1    -1.150548
       1B2    -0.356187     1B1    -0.356187     4A1    -0.297605
       5A1    -0.132862     2B1     0.328677     2B2     0.328677

    Alpha Virtual:

       6A1     0.510061     3B1     0.661799     3B2     0.661799
       7A1     0.698675     8A1     0.830285     4B1     0.917052
       4B2     0.917052     1A2     1.242412     9A1     1.242412
      10A1     1.518361    11A1     1.598177     5B2     1.686393
       5B1     1.686393    12A1     1.980588     2A2     1.980588
      13A1     2.333105     6B1     2.398159     6B2     2.398159
       7B2     3.046993     7B1     3.046993    14A1     3.153426
      15A1     3.611330     8B2     4.078805     8B1     4.078805
      16A1     4.167553     9B2     4.314236     9B1     4.314236
      17A1     4.320000     3A2     4.320001    10B1     4.629123
      10B2     4.629123     4A2     4.743418    18A1     4.743419
      19A1     5.075974    11B2     5.338852    11B1     5.338852
      12B1     5.575076    12B2     5.575076    20A1     6.371944
      21A1     6.477829     5A2     6.477832     6A2     6.903104
      22A1     6.903105    13B1     6.979593    13B2     6.979593
      23A1     7.341671    24A1     8.230088    14B2     8.846213
      14B1     8.846213    25A1    10.372222    26A1    24.276186

    Beta Occupied:

       1A1   -18.823604     2A1   -13.965363     3A1    -1.128870
       1B2    -0.300149     1B1    -0.300149     4A1    -0.251534
       5A1    -0.074949

    Beta Virtual:

       2B1     0.467499     2B2     0.467499     6A1     0.524167
       3B1     0.690547     3B2     0.690547     7A1     0.719112
       8A1     0.861656     4B1     0.971695     4B2     0.971695
       1A2     1.282131     9A1     1.282132    10A1     1.540370
      11A1     1.626328     5B2     1.724319     5B1     1.724319
      12A1     2.033667     2A2     2.033668    13A1     2.352586
       6B1     2.432297     6B2     2.432297     7B2     3.092340
       7B1     3.092340    14A1     3.187587    15A1     3.639082
       8B2     4.126489     8B1     4.126489    16A1     4.192523
      17A1     4.348191     3A2     4.348191     9B2     4.360009
       9B1     4.360009    10B1     4.663864    10B2     4.663864
       4A2     4.810284    18A1     4.810284    19A1     5.098315
      11B2     5.369705    11B1     5.369705    12B1     5.622584
      12B2     5.622584    20A1     6.397494    21A1     6.539739
       5A2     6.539741    22A1     6.943610     6A2     6.943610
      13B1     7.009940    13B2     7.009940    23A1     7.356879
      24A1     8.248888    14B2     8.883890    14B1     8.883890
      25A1    10.404318    26A1    24.299383

    Final Occupation by Irrep:
             A1    A2    B1    B2
    DOCC [     5,    0,    1,    1 ]
    SOCC [     0,    0,    1,    1 ]
    NA   [     5,    0,    2,    2 ]
    NB   [     5,    0,    1,    1 ]

  @DF-UKS Final Energy:  -129.14154035762795

   => Energetics <=

    Nuclear Repulsion Energy =             36.9714657469979500
    One-Electron Energy =                -253.4935812060532498
    Two-Electron Energy =                 100.5292485849010262
    DFT Exchange-Correlation Energy =     -13.1486734834736581
    Empirical Dispersion Energy =           0.0000000000000000
    VV10 Nonlocal Energy =                  0.0000000000000000
    Total Energy =                       -129.1415403576279459

  UHF NO Occupations:
  HONO-2 :    5 A1 1.9997122
  HONO-1 :    2 B1 1.0000000
  HONO-0 :    2 B2 1.0000000
  LUNO+0 :    6 A1 0.0002878
  LUNO+1 :    3 B2 0.0001986
  LUNO+2 :    3 B1 0.0001986
  LUNO+3 :    7 A1 0.0000828

Computation Completed

Properties will be evaluated at   0.000000,   0.000000,   0.000000 [a0]

Properties computed using the B3LYP density matrix

 Multipole Moments:

 ------------------------------------------------------------------------------------
     Multipole            Electronic (a.u.)      Nuclear  (a.u.)        Total (a.u.)
 ------------------------------------------------------------------------------------

 L = 1.  Multiply by 2.5417464519 to convert [e a0] to [Debye]
 Dipole X            :          0.0000000            0.0000000            0.0000000
 Dipole Y            :          0.0000000            0.0000000            0.0000000
 Dipole Z            :         -0.9999030           -0.0030391           -1.0029421
 Magnitude           :                                                    1.0029421

 L = 2.  Multiply by 1.3450342976 to convert [e a0^2] to [Debye ang]
 Quadrupole XX       :         -9.4777013            0.0000000           -9.4777013
 Quadrupole XY       :          0.0000000            0.0000000            0.0000000
 Quadrupole XZ       :          0.0000000            0.0000000            0.0000000
 Quadrupole YY       :         -9.4777013            0.0000000           -9.4777013
 Quadrupole YZ       :          0.0000000            0.0000000            0.0000000
 Quadrupole ZZ       :        -20.6197845            8.5652396          -12.0545449
 Traceless XX        :          3.7140277           -2.8550799            0.8589479
 Traceless YY        :          3.7140277           -2.8550799            0.8589479
 Traceless ZZ        :         -7.4280555            5.7101597           -1.7178958

 ------------------------------------------------------------------------------------
  ==> Computing MBIS Charges <==

  Electron Count from Grid (Expected Number): 16.00000 (16.00000)
  Difference: -0.00000

  MBIS Charges: (a.u.)
   Center  Symbol  Z      Pop.       Charge
      1       O    8    7.966693    0.033307
      2       N    7    8.033307   -1.033307

  MBIS Dipoles: [e a0]
   Center  Symbol  Z        X           Y           Z
      1       O    8    0.000000   -0.000000    0.225379
      2       N    7   -0.000000    0.000000   -0.370245

  MBIS Quadrupoles: [e a0^2]
   Center  Symbol  Z      XX        XY        XZ        YY        YZ        ZZ
      1       O    8   -3.2171    0.0000   -0.0000   -3.2171    0.0000   -3.8327
      2       N    7   -6.2606   -0.0000   -0.0000   -6.2606    0.0000   -6.6478

  MBIS Octupoles: [e a0^3]
   Center  Symbol  Z      XXX       XXY       XXZ       XYY       XYZ       XZZ       YYY       YYZ       YZZ       ZZZ
      1       O    8    0.0000   -0.0000    0.3577   -0.0000   -0.0000   -0.0000    0.0000    0.3577   -0.0000    0.6350
      2       N    7    0.0000   -0.0000   -1.3956   -0.0000   -0.0000    0.0000   -0.0000   -1.3956    0.0000    0.3980

  MBIS Radial Moments:
   Center  Symbol  Z      [a0^2]      [a0^3]      [a0^4]
      1       O    8   10.266874   18.747171   41.476287
      2       N    7   19.168987   48.028304   141.952143

  MBIS Valence Widths: [a0]
   Center  Symbol  Z     Width
      1       O    8    0.365883
      2       N    7    0.501283

*** tstop() called on Mac.lan at Sun Aug 10 17:46:01 2025
Module time:
	user time   =       3.60 seconds =       0.06 minutes
	system time =       2.91 seconds =       0.05 minutes
	total time  =          1 seconds =       0.02 minutes
Total time:
	user time   =      18.97 seconds =       0.32 minutes
	system time =       4.98 seconds =       0.08 minutes
	total time  =          2 seconds =       0.03 minutes

    Psi4 stopped on: Sunday, 10 August 2025 05:46PM
    Psi4 wall time for execution: 0:00:02.31

*** Psi4 exiting successfully. Buy a developer a beer!
