                               Psi4 1.9.1 release

  ==> Input File <==

--------------------------------------------------------------------------
molecule {
-1 1
O           0.000000           0.000000           0.000000
H           0.000000           0.000000           0.658935
}

set {
basis              cc-pvtz
reference          uks
maxiter            500
DAMPING_PERCENTAGE 1
E_CONVERGENCE      1.0E-8
D_CONVERGENCE      1.0E-8
DIIS_MAX_VECS      400
MBIS_MAXITER       8000
guess              read
}

E, wfn = energy('b3lyp', restart_file='last_wfn', return_wfn=True)
properties('b3lyp','MBIS_CHARGES', wfn=wfn)
wfn.to_file('last_wfn')
--------------------------------------------------------------------------

    Molecular point group: c2v
  Charge       = -1
  Multiplicity = 1
  Basis Set: CC-PVTZ
    Blend: CC-PVTZ
  Basis Set: (CC-PVTZ AUX)
    Blend: CC-PVTZ-JKFIT
  @DF-UKS Final Energy:   -75.59728166385599
    Total Energy =                        -75.5972816638559948
 Dipole X            :          0.0000000            0.0000000            0.0000000
 Dipole Y            :          0.0000000            0.0000000            0.0000000
 Dipole Z            :          0.0379241            0.5809282            0.6188523
 Magnitude           :                                                    0.6188523
    Molecular point group: c2v

    Geometry (in Angstrom), charge = -1, multiplicity = 1:

       Center              X                  Y                   Z               Mass
    ------------   -----------------  -----------------  -----------------  -----------------
         O            0.000000000000     0.000000000000    -0.039057893093    15.994914619570
         H            0.000000000000     0.000000000000     0.619877106907     1.007825032230

  Charge       = -1
  Multiplicity = 1
  Basis Set: CC-PVTZ
    Blend: CC-PVTZ
  Basis Set: (CC-PVTZ AUX)
    Blend: CC-PVTZ-JKFIT

    Orbital Energies [Eh]
    ---------------------

    Alpha Occupied:

       1A1   -18.615435     2A1    -0.626176     3A1    -0.034434
       1B2     0.119350     1B1     0.119350

    Alpha Virtual:

       4A1     0.333280     5A1     0.809492     2B1     0.921632
       2B2     0.921632     6A1     0.974012     3B1     1.146643
       3B2     1.146643     7A1     1.182616     1A2     1.893370
       8A1     1.893370     9A1     2.094986     4B1     2.270896
       4B2     2.270896    10A1     2.401921    11A1     3.191206
       5B2     3.787465     5B1     3.787465    12A1     3.794591
       2A2     3.794591     6B2     4.152406     6B1     4.152406
      13A1     4.375489     7B1     4.903536     7B2     4.903536
      14A1     5.080202     8B2     5.591037     8B1     5.591037
      15A1     6.327377    16A1     6.354171     3A2     6.354171
       9B1     6.654136     9B2     6.654136    17A1     6.665647
       4A2     6.665647    18A1     8.069501    19A1     8.277548
      10B2     8.653582    10B1     8.653582    20A1    14.765027

    Beta Occupied:

       1A1   -18.615435     2A1    -0.626176     3A1    -0.034434
       1B2     0.119350     1B1     0.119350

    Beta Virtual:

       4A1     0.333280     5A1     0.809492     2B1     0.921632
       2B2     0.921632     6A1     0.974012     3B1     1.146643
       3B2     1.146643     7A1     1.182616     1A2     1.893370
       8A1     1.893370     9A1     2.094986     4B1     2.270896
       4B2     2.270896    10A1     2.401921    11A1     3.191206
       5B2     3.787465     5B1     3.787465    12A1     3.794591
       2A2     3.794591     6B2     4.152406     6B1     4.152406
      13A1     4.375489     7B1     4.903536     7B2     4.903536
      14A1     5.080202     8B2     5.591037     8B1     5.591037
      15A1     6.327377    16A1     6.354171     3A2     6.354171
       9B1     6.654136     9B2     6.654136    17A1     6.665647
       4A2     6.665647    18A1     8.069501    19A1     8.277548
      10B2     8.653582    10B1     8.653582    20A1    14.765027

    Final Occupation by Irrep:
             A1    A2    B1    B2
    DOCC [     3,    0,    1,    1 ]
    SOCC [     0,    0,    0,    0 ]
    NA   [     3,    0,    1,    1 ]
    NB   [     3,    0,    1,    1 ]

  @DF-UKS Final Energy:   -75.59728166403987

   => Energetics <=

    Nuclear Repulsion Energy =              6.4246362469135798
    One-Electron Energy =                -120.4874221644080023
    Two-Electron Energy =                  46.1031568356071659
    DFT Exchange-Correlation Energy =      -7.6376525821526178
    Empirical Dispersion Energy =           0.0000000000000000
    VV10 Nonlocal Energy =                  0.0000000000000000
    Total Energy =                        -75.5972816640398690

  UHF NO Occupations:
  HONO-2 :    2 A1 2.0000000
  HONO-1 :    3 A1 2.0000000
  HONO-0 :    1 B2 2.0000000
  LUNO+0 :    4 A1 0.0000000
  LUNO+1 :    5 A1 0.0000000
  LUNO+2 :    6 A1 0.0000000
  LUNO+3 :    7 A1 0.0000000

Computation Completed

Properties will be evaluated at   0.000000,   0.000000,   0.000000 [a0]

Properties computed using the B3LYP density matrix

 Multipole Moments:

 ------------------------------------------------------------------------------------
     Multipole            Electronic (a.u.)      Nuclear  (a.u.)        Total (a.u.)
 ------------------------------------------------------------------------------------

 L = 1.  Multiply by 2.5417464519 to convert [e a0] to [Debye]
 Dipole X            :          0.0000000            0.0000000            0.0000000
 Dipole Y            :          0.0000000            0.0000000            0.0000000
 Dipole Z            :          0.0379241            0.5809282            0.6188523
 Magnitude           :                                                    0.6188523

 L = 2.  Multiply by 1.3450342976 to convert [e a0^2] to [Debye ang]
 Quadrupole XX       :         -6.0263530            0.0000000           -6.0263530
 Quadrupole XY       :          0.0000000            0.0000000            0.0000000
 Quadrupole XZ       :          0.0000000            0.0000000            0.0000000
 Quadrupole YY       :         -6.0263530            0.0000000           -6.0263530
 Quadrupole YZ       :          0.0000000            0.0000000            0.0000000
 Quadrupole ZZ       :         -6.3630150            1.4157550           -4.9472600
 Traceless XX        :          0.1122207           -0.4719183           -0.3596977
 Traceless YY        :          0.1122207           -0.4719183           -0.3596977
 Traceless ZZ        :         -0.2244413            0.9438367            0.7193953

 ------------------------------------------------------------------------------------
  ==> Computing MBIS Charges <==

  Electron Count from Grid (Expected Number): 10.00000 (10.00000)
  Difference:  0.00000

  MBIS Charges: (a.u.)
   Center  Symbol  Z      Pop.       Charge
      1       O    8    9.494669   -1.494669
      2       H    1    0.505331    0.494669

  MBIS Dipoles: [e a0]
   Center  Symbol  Z        X           Y           Z
      1       O    8   -0.000000   -0.000000   -0.084423
      2       H    1   -0.000000   -0.000000    0.013501

  MBIS Quadrupoles: [e a0^2]
   Center  Symbol  Z      XX        XY        XZ        YY        YZ        ZZ
      1       O    8   -5.8920    0.0000    0.0000   -5.8920   -0.0000   -5.5292
      2       H    1   -0.1343   -0.0000    0.0000   -0.1343   -0.0000   -0.1328

  MBIS Octupoles: [e a0^3]
   Center  Symbol  Z      XXX       XXY       XXZ       XYY       XYZ       XZZ       YYY       YYZ       YZZ       ZZZ
      1       O    8   -0.0000   -0.0000    0.0644   -0.0000    0.0000    0.0000   -0.0000    0.0644   -0.0000   -0.2002
      2       H    1    0.0000   -0.0000    0.0026    0.0000   -0.0000    0.0000   -0.0000    0.0026   -0.0000    0.0046

  MBIS Radial Moments:
   Center  Symbol  Z      [a0^2]      [a0^3]      [a0^4]
      1       O    8   17.313270   36.345769   89.690059
      2       H    1    0.401417    0.514952    0.794186

  MBIS Valence Widths: [a0]
   Center  Symbol  Z     Width
      1       O    8    0.430773
      2       H    1    0.258240

*** tstop() called on Mac.lan at Sun Aug 10 17:37:16 2025
Module time:
	user time   =       3.48 seconds =       0.06 minutes
	system time =       3.00 seconds =       0.05 minutes
	total time  =          0 seconds =       0.00 minutes
Total time:
	user time   =      13.91 seconds =       0.23 minutes
	system time =       5.29 seconds =       0.09 minutes
	total time  =          1 seconds =       0.02 minutes

    Psi4 stopped on: Sunday, 10 August 2025 05:37PM
    Psi4 wall time for execution: 0:00:01.87

*** Psi4 exiting successfully. Buy a developer a beer!
