                               Psi4 1.9.1 release

  ==> Input File <==

--------------------------------------------------------------------------
molecule {
-1 2
O           0.000000           0.000000           0.000000
O           0.000000           0.000000           1.806377
}

set {
basis              cc-pvtz
reference          uks
maxiter            500
DAMPING_PERCENTAGE 1
E_CONVERGENCE      1.0E-8
D_CONVERGENCE      1.0E-8
DIIS_MAX_VECS      400
MBIS_MAXITER       8000
guess              read
}

E, wfn = energy('b3lyp', restart_file='last_wfn', return_wfn=True)
properties('b3lyp','MBIS_CHARGES', wfn=wfn)
wfn.to_file('last_wfn')
--------------------------------------------------------------------------

    Molecular point group: d2h
  Charge       = -1
  Multiplicity = 2
  Basis Set: CC-PVTZ
    Blend: CC-PVTZ
  Basis Set: (CC-PVTZ AUX)
    Blend: CC-PVTZ-JKFIT
  @DF-UKS Final Energy:  -150.30822635385391
    Total Energy =                       -150.3082263538539110
 Dipole X            :          0.0000000            0.0000000            0.0000000
 Dipole Y            :          0.0000000            0.0000000            0.0000000
 Dipole Z            :          0.0000000            0.0000000            0.0000000
 Magnitude           :                                                    0.0000000
    Molecular point group: d2h

    Geometry (in Angstrom), charge = -1, multiplicity = 2:

       Center              X                  Y                   Z               Mass
    ------------   -----------------  -----------------  -----------------  -----------------
         O            0.000000000000     0.000000000000    -0.903188500000    15.994914619570
         O            0.000000000000     0.000000000000     0.903188500000    15.994914619570

  Charge       = -1
  Multiplicity = 2
  Basis Set: CC-PVTZ
    Blend: CC-PVTZ
  Basis Set: (CC-PVTZ AUX)
    Blend: CC-PVTZ-JKFIT

    Orbital Energies [Eh]
    ---------------------

    Alpha Occupied:

       1Ag   -18.879076     1B1u  -18.879053     2Ag    -0.654346
       2B1u   -0.553822     1B2u   -0.080464     3Ag    -0.078231
       1B3u   -0.042447     1B3g   -0.017730     1B2g    0.023447

    Alpha Virtual:

       3B1u    0.186514     4B1u    0.795148     2B2u    0.811742
       2B3u    0.834529     2B3g    0.906019     4Ag     0.909092
       2B2g    0.926210     5Ag     1.049876     5B1u    1.394148
       3B2u    1.566980     3B3u    1.587831     6Ag     1.697826
       1B1g    1.718465     7Ag     1.725458     1Au     1.816434
       6B1u    1.816715     3B3g    2.074652     3B2g    2.098772
       7B1u    2.602064     8Ag     3.799834     4B2u    3.831347
       4B3u    3.866183     4B3g    3.895872     4B2g    3.931166
       8B1u    4.091181     9Ag     5.239656     5B2u    5.243740
       5B3u    5.271706     2B1g    5.377467    10Ag     5.380108
       6B2u    5.423096     6B3u    5.423206     5B3g    5.427476
       5B2g    5.427578     9B1u    5.449342     2Au     5.449944
       6B3g    5.563083     6B2g    5.590799    10B1u    5.757144
       7B2u    6.362756     7B3u    6.396370    11Ag     6.429784
       3B1g    6.431974    11B1u    6.503573     3Au     6.503678
      12Ag     6.548174     7B3g    6.748725     7B2g    6.781790
      12B1u    7.239091    13Ag     7.439572    13B1u    8.253794

    Beta Occupied:

       1Ag   -18.865231     1B1u  -18.865191     2Ag    -0.618364
       2B1u   -0.511287     3Ag    -0.065733     1B3u   -0.030427
       1B2u    0.013036     1B2g    0.037454

    Beta Virtual:

       1B3g    0.139877     3B1u    0.202796     4B1u    0.802629
       2B3u    0.840401     2B2u    0.852800     4Ag     0.918136
       2B2g    0.931640     2B3g    0.942958     5Ag     1.060704
       5B1u    1.409700     3B2u    1.589191     3B3u    1.589580
       6Ag     1.715878     1B1g    1.742874     7Ag     1.744424
       1Au     1.843500     6B1u    1.844870     3B2g    2.102111
       3B3g    2.104362     7B1u    2.614928     8Ag     3.809101
       4B3u    3.876900     4B2u    3.892473     4B2g    3.942132
       4B3g    3.957709     8B1u    4.104259     9Ag     5.259107
       5B2u    5.276195     5B3u    5.276237     2B1g    5.401171
      10Ag     5.402537     6B3u    5.457852     6B2u    5.458121
       5B2g    5.463362     5B3g    5.463638     2Au     5.473973
       9B1u    5.475355     6B2g    5.594561     6B3g    5.595276
      10B1u    5.772072     7B3u    6.403698     7B2u    6.416274
       3B1g    6.481968    11Ag     6.485152     3Au     6.553379
      11B1u    6.556742    12Ag     6.561873     7B2g    6.788515
       7B3g    6.799919    12B1u    7.250672    13Ag     7.468515
      13B1u    8.282760

    Final Occupation by Irrep:
             Ag   B1g   B2g   B3g    Au   B1u   B2u   B3u
    DOCC [     3,    0,    1,    0,    0,    2,    1,    1 ]
    SOCC [     0,    0,    0,    1,    0,    0,    0,    0 ]
    NA   [     3,    0,    1,    1,    0,    2,    1,    1 ]
    NB   [     3,    0,    1,    0,    0,    2,    1,    1 ]

  @DF-UKS Final Energy:  -150.30822635351686

   => Energetics <=

    Nuclear Repulsion Energy =             18.7487669976311686
    One-Electron Energy =                -250.0594896373745826
    Two-Electron Energy =                  94.8926291548109049
    DFT Exchange-Correlation Energy =     -13.8901328685843506
    Empirical Dispersion Energy =           0.0000000000000000
    VV10 Nonlocal Energy =                  0.0000000000000000
    Total Energy =                       -150.3082263535168579

  UHF NO Occupations:
  HONO-2 :    2B1u 1.9997981
  HONO-1 :    1B2u 1.9978808
  HONO-0 :    1B3g 1.0000000
  LUNO+0 :    2B2u 0.0021192
  LUNO+1 :    3B1u 0.0002019
  LUNO+2 :    4 Ag 0.0001579
  LUNO+3 :    2B3u 0.0000560

Computation Completed

Properties will be evaluated at   0.000000,   0.000000,   0.000000 [a0]

Properties computed using the B3LYP density matrix

 Multipole Moments:

 ------------------------------------------------------------------------------------
     Multipole            Electronic (a.u.)      Nuclear  (a.u.)        Total (a.u.)
 ------------------------------------------------------------------------------------

 L = 1.  Multiply by 2.5417464519 to convert [e a0] to [Debye]
 Dipole X            :          0.0000000            0.0000000            0.0000000
 Dipole Y            :          0.0000000            0.0000000            0.0000000
 Dipole Z            :          0.0000000            0.0000000            0.0000000
 Magnitude           :                                                    0.0000000

 L = 2.  Multiply by 1.3450342976 to convert [e a0^2] to [Debye ang]
 Quadrupole XX       :         -9.9296011            0.0000000           -9.9296011
 Quadrupole XY       :          0.0000000            0.0000000            0.0000000
 Quadrupole XZ       :          0.0000000            0.0000000            0.0000000
 Quadrupole YY       :         -9.1307973            0.0000000           -9.1307973
 Quadrupole YZ       :          0.0000000            0.0000000            0.0000000
 Quadrupole ZZ       :        -58.3692132           46.6095077          -11.7597056
 Traceless XX        :         15.8802694          -15.5365026            0.3437669
 Traceless YY        :         16.6790732          -15.5365026            1.1425707
 Traceless ZZ        :        -32.5593427           31.0730051           -1.4863376

 ------------------------------------------------------------------------------------
  ==> Computing MBIS Charges <==

  Electron Count from Grid (Expected Number): 17.00000 (17.00000)
  Difference:  0.00000

  MBIS Charges: (a.u.)
   Center  Symbol  Z      Pop.       Charge
      1       O    8    8.500000   -0.500000
      2       O    8    8.500000   -0.500000

  MBIS Dipoles: [e a0]
   Center  Symbol  Z        X           Y           Z
      1       O    8   -0.000000   -0.000000    0.043965
      2       O    8    0.000000   -0.000000   -0.043965

  MBIS Quadrupoles: [e a0^2]
   Center  Symbol  Z      XX        XY        XZ        YY        YZ        ZZ
      1       O    8   -4.9648   -0.0000   -0.0000   -4.5654   -0.0000   -4.2732
      2       O    8   -4.9648   -0.0000    0.0000   -4.5654    0.0000   -4.2732

  MBIS Octupoles: [e a0^3]
   Center  Symbol  Z      XXX       XXY       XXZ       XYY       XYZ       XZZ       YYY       YYZ       YZZ       ZZZ
      1       O    8   -0.0000   -0.0000    0.0343    0.0000   -0.0000    0.0000   -0.0000   -0.0577    0.0000   -0.3591
      2       O    8   -0.0000   -0.0000   -0.0343    0.0000    0.0000    0.0000    0.0000    0.0577   -0.0000    0.3591

  MBIS Radial Moments:
   Center  Symbol  Z      [a0^2]      [a0^3]      [a0^4]
      1       O    8   13.803425   27.882231   67.117214
      2       O    8   13.803425   27.882231   67.117214

  MBIS Valence Widths: [a0]
   Center  Symbol  Z     Width
      1       O    8    0.411002
      2       O    8    0.411002

*** tstop() called on Mac.lan at Sun Aug 10 17:28:53 2025
Module time:
	user time   =       3.40 seconds =       0.06 minutes
	system time =       2.26 seconds =       0.04 minutes
	total time  =          1 seconds =       0.02 minutes
Total time:
	user time   =      14.40 seconds =       0.24 minutes
	system time =       4.36 seconds =       0.07 minutes
	total time  =          2 seconds =       0.03 minutes

    Psi4 stopped on: Sunday, 10 August 2025 05:28PM
    Psi4 wall time for execution: 0:00:01.82

*** Psi4 exiting successfully. Buy a developer a beer!
