                               Psi4 1.9.1 release

  ==> Input File <==

--------------------------------------------------------------------------
molecule {
-1 2
H           0.000000           0.000000           0.000000
H           0.000000           0.000000           1.035451
}

set {
basis              cc-pvtz
reference          uks
maxiter            500
DAMPING_PERCENTAGE 1
E_CONVERGENCE      1.0E-8
D_CONVERGENCE      1.0E-8
DIIS_MAX_VECS      400
MBIS_MAXITER       8000
guess              read
}

E, wfn = energy('b3lyp', restart_file='last_wfn', return_wfn=True)
properties('b3lyp','MBIS_CHARGES', wfn=wfn)
wfn.to_file('last_wfn')
--------------------------------------------------------------------------

    Molecular point group: d2h
  Charge       = -1
  Multiplicity = 2
  Basis Set: CC-PVTZ
    Blend: CC-PVTZ
  Basis Set: (CC-PVTZ AUX)
    Blend: CC-PVTZ-JKFIT
  @DF-UKS Final Energy:    -1.05773636358057
    Total Energy =                         -1.0577363635805708
 Dipole X            :          0.0000000            0.0000000            0.0000000
 Dipole Y            :          0.0000000            0.0000000            0.0000000
 Dipole Z            :          0.0000000            0.0000000            0.0000000
 Magnitude           :                                                    0.0000000
    Molecular point group: d2h

    Geometry (in Angstrom), charge = -1, multiplicity = 2:

       Center              X                  Y                   Z               Mass
    ------------   -----------------  -----------------  -----------------  -----------------
         H            0.000000000000     0.000000000000    -0.517725500000     1.007825032230
         H            0.000000000000     0.000000000000     0.517725500000     1.007825032230

  Charge       = -1
  Multiplicity = 2
  Basis Set: CC-PVTZ
    Blend: CC-PVTZ
  Basis Set: (CC-PVTZ AUX)
    Blend: CC-PVTZ-JKFIT

    Orbital Energies [Eh]
    ---------------------

    Alpha Occupied:

       1Ag    -0.085113     1B1u    0.185675

    Alpha Virtual:

       2Ag     0.455908     2B1u    0.618782     1B2u    0.793727
       1B3u    0.793727     3Ag     1.089412     1B2g    1.147342
       1B3g    1.147342     3B1u    1.559437     4Ag     2.524763
       4B1u    2.615542     2B3u    3.230176     2B2u    3.230176
       5Ag     3.261663     1B1g    3.261663     6Ag     3.408360
       5B1u    3.826669     1Au     3.826669     3B3u    3.937918
       3B2u    3.937918     2B3g    4.006188     2B2g    4.006188
       6B1u    4.098599     3B2g    4.840870     3B3g    4.840870
       7Ag     4.908998     7B1u    6.128634

    Beta Occupied:

       1Ag    -0.051430

    Beta Virtual:

       1B1u    0.283065     2Ag     0.473483     2B1u    0.665603
       1B2u    0.807657     1B3u    0.807657     3Ag     1.132094
       1B3g    1.183832     1B2g    1.183832     3B1u    1.599706
       4Ag     2.551560     4B1u    2.655165     2B3u    3.242141
       2B2u    3.242141     5Ag     3.280343     1B1g    3.280343
       6Ag     3.439045     5B1u    3.853498     1Au     3.853498
       3B3u    3.976557     3B2u    3.976557     2B3g    4.046706
       2B2g    4.046706     6B1u    4.147563     3B2g    4.868158
       3B3g    4.868158     7Ag     4.946609     7B1u    6.153457

    Final Occupation by Irrep:
             Ag   B1g   B2g   B3g    Au   B1u   B2u   B3u
    DOCC [     1,    0,    0,    0,    0,    0,    0,    0 ]
    SOCC [     0,    0,    0,    0,    0,    1,    0,    0 ]
    NA   [     1,    0,    0,    0,    0,    1,    0,    0 ]
    NB   [     1,    0,    0,    0,    0,    0,    0,    0 ]

  @DF-UKS Final Energy:    -1.05773636316441

   => Energetics <=

    Nuclear Repulsion Energy =              0.5110596355307978
    One-Electron Energy =                  -2.6872090931238271
    Two-Electron Energy =                   1.8081465297275363
    DFT Exchange-Correlation Energy =      -0.6897334352989212
    Empirical Dispersion Energy =           0.0000000000000000
    VV10 Nonlocal Energy =                  0.0000000000000000
    Total Energy =                         -1.0577363631644143

  UHF NO Occupations:
  HONO-1 :    1 Ag 1.9994815
  HONO-0 :    1B1u 1.0000000
  LUNO+0 :    2 Ag 0.0005185
  LUNO+1 :    3 Ag 0.0000000
  LUNO+2 :    4 Ag 0.0000000
  LUNO+3 :    2B1u 0.0000000

Computation Completed

Properties will be evaluated at   0.000000,   0.000000,   0.000000 [a0]

Properties computed using the B3LYP density matrix

 Multipole Moments:

 ------------------------------------------------------------------------------------
     Multipole            Electronic (a.u.)      Nuclear  (a.u.)        Total (a.u.)
 ------------------------------------------------------------------------------------

 L = 1.  Multiply by 2.5417464519 to convert [e a0] to [Debye]
 Dipole X            :          0.0000000            0.0000000            0.0000000
 Dipole Y            :          0.0000000            0.0000000            0.0000000
 Dipole Z            :          0.0000000            0.0000000            0.0000000
 Magnitude           :                                                    0.0000000

 L = 2.  Multiply by 1.3450342976 to convert [e a0^2] to [Debye ang]
 Quadrupole XX       :         -4.2791775            0.0000000           -4.2791775
 Quadrupole XY       :          0.0000000            0.0000000            0.0000000
 Quadrupole XZ       :          0.0000000            0.0000000            0.0000000
 Quadrupole YY       :         -4.2791775            0.0000000           -4.2791775
 Quadrupole YZ       :          0.0000000            0.0000000            0.0000000
 Quadrupole ZZ       :        -10.1046737            1.9143742           -8.1902994
 Traceless XX        :          1.9418321           -0.6381247            1.3037073
 Traceless YY        :          1.9418321           -0.6381247            1.3037073
 Traceless ZZ        :         -3.8836641            1.2762495           -2.6074146

 ------------------------------------------------------------------------------------
  ==> Computing MBIS Charges <==

  Electron Count from Grid (Expected Number):  3.00000 ( 3.00000)
  Difference: -0.00000

  MBIS Charges: (a.u.)
   Center  Symbol  Z      Pop.       Charge
      1       H    1    1.500000   -0.500000
      2       H    1    1.500000   -0.500000

  MBIS Dipoles: [e a0]
   Center  Symbol  Z        X           Y           Z
      1       H    1    0.000000    0.000000    0.284438
      2       H    1   -0.000000    0.000000   -0.284438

  MBIS Quadrupoles: [e a0^2]
   Center  Symbol  Z      XX        XY        XZ        YY        YZ        ZZ
      1       H    1   -2.1396   -0.0000   -0.0000   -2.1396   -0.0000   -3.0600
      2       H    1   -2.1396   -0.0000    0.0000   -2.1396    0.0000   -3.0600

  MBIS Octupoles: [e a0^3]
   Center  Symbol  Z      XXX       XXY       XXZ       XYY       XYZ       XZZ       YYY       YYZ       YZZ       ZZZ
      1       H    1   -0.0000   -0.0000    0.7357    0.0000   -0.0000    0.0000    0.0000    0.7357    0.0000    1.3783
      2       H    1    0.0000    0.0000   -0.7357    0.0000    0.0000   -0.0000    0.0000   -0.7357   -0.0000   -1.3783

  MBIS Radial Moments:
   Center  Symbol  Z      [a0^2]      [a0^3]      [a0^4]
      1       H    1    7.339168   23.288945   85.834742
      2       H    1    7.339168   23.288945   85.834742

  MBIS Valence Widths: [a0]
   Center  Symbol  Z     Width
      1       H    1    0.633137
      2       H    1    0.633137

*** tstop() called on Mac.lan at Sun Aug 10 17:25:39 2025
Module time:
	user time   =       0.74 seconds =       0.01 minutes
	system time =       1.17 seconds =       0.02 minutes
	total time  =          0 seconds =       0.00 minutes
Total time:
	user time   =       2.68 seconds =       0.04 minutes
	system time =       2.49 seconds =       0.04 minutes
	total time  =          1 seconds =       0.02 minutes

    Psi4 stopped on: Sunday, 10 August 2025 05:25PM
    Psi4 wall time for execution: 0:00:00.84

*** Psi4 exiting successfully. Buy a developer a beer!
