                               Psi4 1.9.1 release

  ==> Input File <==

--------------------------------------------------------------------------
molecule {
-1 3
O           0.000000           0.000000           0.000000
N           0.000000           0.000000           1.903485
}

set {
basis              cc-pvtz
reference          uks
maxiter            500
DAMPING_PERCENTAGE 1
E_CONVERGENCE      1.0E-8
D_CONVERGENCE      1.0E-8
DIIS_MAX_VECS      400
MBIS_MAXITER       8000
guess              read
}

E, wfn = energy('b3lyp', restart_file='last_wfn', return_wfn=True)
properties('b3lyp','MBIS_CHARGES', wfn=wfn)
wfn.to_file('last_wfn')
--------------------------------------------------------------------------

    Molecular point group: c2v
  Charge       = -1
  Multiplicity = 3
  Basis Set: CC-PVTZ
    Blend: CC-PVTZ
  Basis Set: (CC-PVTZ AUX)
    Blend: CC-PVTZ-JKFIT
  @DF-UKS Final Energy:  -129.80122981831644
    Total Energy =                       -129.8012298183164432
 Dipole X            :          0.0000000            0.0000000            0.0000000
 Dipole Y            :          0.0000000            0.0000000            0.0000000
 Dipole Z            :          0.3405029           -0.0072174            0.3332855
 Magnitude           :                                                    0.3332855
    Molecular point group: c2v

    Geometry (in Angstrom), charge = -1, multiplicity = 3:

       Center              X                  Y                   Z               Mass
    ------------   -----------------  -----------------  -----------------  -----------------
         O            0.000000000000     0.000000000000    -0.888547617489    15.994914619570
         N            0.000000000000     0.000000000000     1.014937382511    14.003074004430

  Charge       = -1
  Multiplicity = 3
  Basis Set: CC-PVTZ
    Blend: CC-PVTZ
  Basis Set: (CC-PVTZ AUX)
    Blend: CC-PVTZ-JKFIT

    Orbital Energies [Eh]
    ---------------------

    Alpha Occupied:

       1A1   -18.829927     2A1   -14.132706     3A1    -0.575827
       4A1    -0.465318     1B2    -0.059734     1B1    -0.059734
       5A1    -0.049268     2B1     0.025912     2B2     0.025912

    Alpha Virtual:

       6A1     0.210933     7A1     0.674207     3B2     0.691222
       3B1     0.691222     8A1     0.823339     4B1     0.897794
       4B2     0.897794     9A1     0.917918     1A2     1.269808
      10A1     1.269809     5B1     1.282489     5B2     1.282489
      11A1     1.287852    12A1     1.536485     2A2     1.806117
      13A1     1.806119     6B1     1.947908     6B2     1.947908
      14A1     2.296666     7B1     3.049009     7B2     3.049009
      15A1     3.213803    16A1     3.833455     8B1     3.926053
       8B2     3.926053     9B1     4.110772     9B2     4.110772
      17A1     4.120462     3A2     4.120464    10B1     4.148171
      10B2     4.148171    18A1     4.341915     4A2     4.631492
      19A1     4.631516    11B1     4.691614    11B2     4.691614
      20A1     4.967211     5A2     5.464042    21A1     5.464056
      12B2     5.467854    12B1     5.467854    13B1     5.539851
      13B2     5.539851    22A1     5.668930    23A1     5.750167
      24A1     6.516142     6A2     6.516196    14B1     6.628539
      14B2     6.628539    25A1     6.919526    26A1     8.094971

    Beta Occupied:

       1A1   -18.828280     2A1   -14.091988     3A1    -0.562892
       4A1    -0.347854     5A1    -0.033646     1B1     0.028347
       1B2     0.028347

    Beta Virtual:

       2B1     0.174259     2B2     0.174259     6A1     0.231685
       7A1     0.710006     3B2     0.759609     3B1     0.759609
       8A1     0.850628     4B1     0.913203     4B2     0.913203
       9A1     0.923297    10A1     1.302143     5B1     1.324503
       5B2     1.324503     1A2     1.349147    11A1     1.349147
      12A1     1.556040     2A2     1.821688    13A1     1.821690
       6B1     1.952668     6B2     1.952668    14A1     2.311252
       7B2     3.150943     7B1     3.150943    15A1     3.261310
      16A1     3.832622     8B1     3.944471     8B2     3.944471
      17A1     4.205537     3A2     4.205539     9B1     4.217265
       9B2     4.217265    10B1     4.218650    10B2     4.218650
      18A1     4.392556     4A2     4.776532    19A1     4.776554
      11B1     4.791482    11B2     4.791482    20A1     5.020069
       5A2     5.465068    21A1     5.465081    12B2     5.490546
      12B1     5.490546    13B1     5.530982    13B2     5.530982
      22A1     5.706281    23A1     5.784927    24A1     6.547494
       6A2     6.547548    14B1     6.619090    14B2     6.619090
      25A1     6.885446    26A1     8.107092

    Final Occupation by Irrep:
             A1    A2    B1    B2
    DOCC [     5,    0,    1,    1 ]
    SOCC [     0,    0,    1,    1 ]
    NA   [     5,    0,    2,    2 ]
    NB   [     5,    0,    1,    1 ]

  @DF-UKS Final Energy:  -129.80122981811616

   => Energetics <=

    Nuclear Repulsion Energy =             15.5682465569836364
    One-Electron Energy =                -213.8083715649183318
    Two-Electron Energy =                  80.9523327167770077
    DFT Exchange-Correlation Energy =     -12.5134375269584694
    Empirical Dispersion Energy =           0.0000000000000000
    VV10 Nonlocal Energy =                  0.0000000000000000
    Total Energy =                       -129.8012298181161555

  UHF NO Occupations:
  HONO-2 :    5 A1 1.9401435
  HONO-1 :    2 B1 1.0000000
  HONO-0 :    2 B2 1.0000000
  LUNO+0 :    6 A1 0.0598565
  LUNO+1 :    3 B1 0.0011637
  LUNO+2 :    3 B2 0.0011637
  LUNO+3 :    7 A1 0.0007758

Computation Completed

Properties will be evaluated at   0.000000,   0.000000,   0.000000 [a0]

Properties computed using the B3LYP density matrix

 Multipole Moments:

 ------------------------------------------------------------------------------------
     Multipole            Electronic (a.u.)      Nuclear  (a.u.)        Total (a.u.)
 ------------------------------------------------------------------------------------

 L = 1.  Multiply by 2.5417464519 to convert [e a0] to [Debye]
 Dipole X            :          0.0000000            0.0000000            0.0000000
 Dipole Y            :          0.0000000            0.0000000            0.0000000
 Dipole Z            :          0.3405030           -0.0072174            0.3332857
 Magnitude           :                                                    0.3332857

 L = 2.  Multiply by 1.3450342976 to convert [e a0^2] to [Debye ang]
 Quadrupole XX       :         -9.9171239            0.0000000           -9.9171239
 Quadrupole XY       :          0.0000000            0.0000000            0.0000000
 Quadrupole XZ       :          0.0000000            0.0000000            0.0000000
 Quadrupole YY       :         -9.9171239            0.0000000           -9.9171239
 Quadrupole YZ       :          0.0000000            0.0000000            0.0000000
 Quadrupole ZZ       :        -61.2151899           48.3051518          -12.9100381
 Traceless XX        :         17.0993553          -16.1017173            0.9976381
 Traceless YY        :         17.0993553          -16.1017173            0.9976381
 Traceless ZZ        :        -34.1987107           32.2034345           -1.9952761

 ------------------------------------------------------------------------------------
  ==> Computing MBIS Charges <==

  Electron Count from Grid (Expected Number): 16.00000 (16.00000)
  Difference:  0.00000

  MBIS Charges: (a.u.)
   Center  Symbol  Z      Pop.       Charge
      1       O    8    8.671264   -0.671264
      2       N    7    7.328736   -0.328736

  MBIS Dipoles: [e a0]
   Center  Symbol  Z        X           Y           Z
      1       O    8    0.000000   -0.000000   -0.025087
      2       N    7    0.000000   -0.000000   -0.138252

  MBIS Quadrupoles: [e a0^2]
   Center  Symbol  Z      XX        XY        XZ        YY        YZ        ZZ
      1       O    8   -5.0631    0.0000    0.0000   -5.0631    0.0000   -4.4919
      2       N    7   -4.8540    0.0000   -0.0000   -4.8540   -0.0000   -4.8702

  MBIS Octupoles: [e a0^3]
   Center  Symbol  Z      XXX       XXY       XXZ       XYY       XYZ       XZZ       YYY       YYZ       YZZ       ZZZ
      1       O    8    0.0000   -0.0000   -0.0742    0.0000    0.0000    0.0000   -0.0000   -0.0742    0.0000   -0.5451
      2       N    7    0.0000   -0.0000   -0.0148    0.0000   -0.0000    0.0000   -0.0000   -0.0148   -0.0000    0.1001

  MBIS Radial Moments:
   Center  Symbol  Z      [a0^2]      [a0^3]      [a0^4]
      1       O    8   14.618128   29.966714   72.973987
      2       N    7   14.578234   32.833936   87.769759

  MBIS Valence Widths: [a0]
   Center  Symbol  Z     Width
      1       O    8    0.418171
      2       N    7    0.466134

*** tstop() called on Mac.lan at Sun Aug 10 17:47:48 2025
Module time:
	user time   =       4.06 seconds =       0.07 minutes
	system time =       2.16 seconds =       0.04 minutes
	total time  =          1 seconds =       0.02 minutes
Total time:
	user time   =      22.12 seconds =       0.37 minutes
	system time =       4.37 seconds =       0.07 minutes
	total time  =          3 seconds =       0.05 minutes

    Psi4 stopped on: Sunday, 10 August 2025 05:47PM
    Psi4 wall time for execution: 0:00:02.56

*** Psi4 exiting successfully. Buy a developer a beer!
