                               Psi4 1.9.1 release

  ==> Input File <==

--------------------------------------------------------------------------
molecule {
-1 3
C           0.000000           0.000000           0.000000
H           0.000000           0.000000           0.808266
}

set {
basis              cc-pvtz
reference          uks
maxiter            500
DAMPING_PERCENTAGE 1
E_CONVERGENCE      1.0E-8
D_CONVERGENCE      1.0E-8
DIIS_MAX_VECS      400
MBIS_MAXITER       8000
guess              read
}

E, wfn = energy('b3lyp', restart_file='last_wfn', return_wfn=True)
properties('b3lyp','MBIS_CHARGES', wfn=wfn)
wfn.to_file('last_wfn')
--------------------------------------------------------------------------

    Molecular point group: c2v
  Charge       = -1
  Multiplicity = 3
  Basis Set: CC-PVTZ
    Blend: CC-PVTZ
  Basis Set: (CC-PVTZ AUX)
    Blend: CC-PVTZ-JKFIT
  @DF-UKS Final Energy:   -38.42466466993953
    Total Energy =                        -38.4246646699395313
 Dipole X            :          0.0000000            0.0000000            0.0000000
 Dipole Y            :          0.0000000            0.0000000            0.0000000
 Dipole Z            :          0.1631082            0.6990174            0.8621256
 Magnitude           :                                                    0.8621256
    Molecular point group: c2v

    Geometry (in Angstrom), charge = -1, multiplicity = 3:

       Center              X                  Y                   Z               Mass
    ------------   -----------------  -----------------  -----------------  -----------------
         C            0.000000000000     0.000000000000    -0.062623129192    12.000000000000
         H            0.000000000000     0.000000000000     0.745642870808     1.007825032230

  Charge       = -1
  Multiplicity = 3
  Basis Set: CC-PVTZ
    Blend: CC-PVTZ
  Basis Set: (CC-PVTZ AUX)
    Blend: CC-PVTZ-JKFIT

    Orbital Energies [Eh]
    ---------------------

    Alpha Occupied:

       1A1    -9.828757     2A1    -0.378180     3A1     0.023442
       1B2     0.094359     1B1     0.094359

    Alpha Virtual:

       4A1     0.298872     5A1     0.543636     2B1     0.578097
       2B2     0.578097     6A1     0.658377     7A1     0.892503
       3B2     0.938282     3B1     0.938282     1A2     0.971043
       8A1     0.971043     9A1     1.305649     4B1     1.382237
       4B2     1.382237    10A1     2.192772    11A1     2.251358
       5B1     2.294665     5B2     2.294665    12A1     2.542540
       2A2     2.930474    13A1     2.930475     6B1     3.004663
       6B2     3.004663     7B1     3.080173     7B2     3.080173
       3A2     3.259447    14A1     3.259447     8B1     3.370044
       8B2     3.370044    15A1     3.388421    16A1     4.117899
       4A2     4.280379    17A1     4.280379     9B1     4.347656
       9B2     4.347656    10B1     5.869436    10B2     5.869436
      18A1     5.883584    19A1     6.227497    20A1    12.910441

    Beta Occupied:

       1A1    -9.806226     2A1    -0.313369     3A1     0.065558

    Beta Virtual:

       1B1     0.249079     1B2     0.249079     4A1     0.303823
       5A1     0.560668     2B1     0.647464     2B2     0.647464
       6A1     0.694540     7A1     0.915736     3B2     0.975249
       3B1     0.975249     1A2     1.047633     8A1     1.047633
       9A1     1.326088     4B1     1.403795     4B2     1.403795
      10A1     2.231854    11A1     2.268543     5B1     2.372141
       5B2     2.372141    12A1     2.590280    13A1     2.985393
       2A2     2.985393     6B1     3.099604     6B2     3.099604
       7B1     3.125377     7B2     3.125377    14A1     3.367792
       3A2     3.367792     8B1     3.405958     8B2     3.405958
      15A1     3.420287    16A1     4.139170     4A2     4.315460
      17A1     4.315461     9B1     4.363829     9B2     4.363829
      10B1     5.901364    10B2     5.901364    18A1     5.904306
      19A1     6.239194    20A1    12.936023

    Final Occupation by Irrep:
             A1    A2    B1    B2
    DOCC [     3,    0,    0,    0 ]
    SOCC [     0,    0,    1,    1 ]
    NA   [     3,    0,    1,    1 ]
    NB   [     3,    0,    0,    0 ]

  @DF-UKS Final Energy:   -38.42466467130688

   => Energetics <=

    Nuclear Repulsion Energy =              3.9282405347002096
    One-Electron Energy =                 -61.1402649450362148
    Two-Electron Energy =                  23.6682079304741002
    DFT Exchange-Correlation Energy =      -4.8808481914449775
    Empirical Dispersion Energy =           0.0000000000000000
    VV10 Nonlocal Energy =                  0.0000000000000000
    Total Energy =                        -38.4246646713068785

  UHF NO Occupations:
  HONO-2 :    3 A1 1.9977646
  HONO-1 :    1 B2 1.0000000
  HONO-0 :    1 B1 1.0000000
  LUNO+0 :    4 A1 0.0022354
  LUNO+1 :    5 A1 0.0002099
  LUNO+2 :    6 A1 0.0000011
  LUNO+3 :    7 A1 0.0000000

Computation Completed

Properties will be evaluated at   0.000000,   0.000000,   0.000000 [a0]

Properties computed using the B3LYP density matrix

 Multipole Moments:

 ------------------------------------------------------------------------------------
     Multipole            Electronic (a.u.)      Nuclear  (a.u.)        Total (a.u.)
 ------------------------------------------------------------------------------------

 L = 1.  Multiply by 2.5417464519 to convert [e a0] to [Debye]
 Dipole X            :          0.0000000            0.0000000            0.0000000
 Dipole Y            :          0.0000000            0.0000000            0.0000000
 Dipole Z            :          0.1631082            0.6990174            0.8621256
 Magnitude           :                                                    0.8621256

 L = 2.  Multiply by 1.3450342976 to convert [e a0^2] to [Debye ang]
 Quadrupole XX       :         -7.7810628            0.0000000           -7.7810628
 Quadrupole XY       :          0.0000000            0.0000000            0.0000000
 Quadrupole XZ       :          0.0000000            0.0000000            0.0000000
 Quadrupole YY       :         -7.7810628            0.0000000           -7.7810628
 Quadrupole YZ       :          0.0000000            0.0000000            0.0000000
 Quadrupole ZZ       :         -9.9350929            2.0694793           -7.8656136
 Traceless XX        :          0.7180100           -0.6898264            0.0281836
 Traceless YY        :          0.7180100           -0.6898264            0.0281836
 Traceless ZZ        :         -1.4360200            1.3796529           -0.0563672

 ------------------------------------------------------------------------------------
  ==> Computing MBIS Charges <==

  Electron Count from Grid (Expected Number):  8.00000 ( 8.00000)
  Difference: -0.00000

  MBIS Charges: (a.u.)
   Center  Symbol  Z      Pop.       Charge
      1       C    6    7.195790   -1.195790
      2       H    1    0.804209    0.195791

  MBIS Dipoles: [e a0]
   Center  Symbol  Z        X           Y           Z
      1       C    6    0.000000   -0.000000    0.418817
      2       H    1   -0.000000    0.000000    0.025917

  MBIS Quadrupoles: [e a0^2]
   Center  Symbol  Z      XX        XY        XZ        YY        YZ        ZZ
      1       C    6   -7.4836    0.0000    0.0000   -7.4836    0.0000   -7.9098
      2       H    1   -0.2975   -0.0000    0.0000   -0.2975    0.0000   -0.3017

  MBIS Octupoles: [e a0^3]
   Center  Symbol  Z      XXX       XXY       XXZ       XYY       XYZ       XZZ       YYY       YYZ       YZZ       ZZZ
      1       C    6   -0.0000   -0.0000    1.0387   -0.0000   -0.0000   -0.0000   -0.0000    1.0387   -0.0000    2.2089
      2       H    1   -0.0000    0.0000    0.0049    0.0000   -0.0000    0.0000   -0.0000    0.0049    0.0000    0.0072

  MBIS Radial Moments:
   Center  Symbol  Z      [a0^2]      [a0^3]      [a0^4]
      1       C    6   22.877016   64.697108   213.380933
      2       H    1    0.896622    1.347884    2.437649

  MBIS Valence Widths: [a0]
   Center  Symbol  Z     Width
      1       C    6    0.594937
      2       H    1    0.307767

*** tstop() called on Mac.lan at Sun Aug 10 17:35:03 2025
Module time:
	user time   =       3.15 seconds =       0.05 minutes
	system time =       2.18 seconds =       0.04 minutes
	total time  =          0 seconds =       0.00 minutes
Total time:
	user time   =      22.47 seconds =       0.37 minutes
	system time =       4.68 seconds =       0.08 minutes
	total time  =          2 seconds =       0.03 minutes

    Psi4 stopped on: Sunday, 10 August 2025 05:35PM
    Psi4 wall time for execution: 0:00:02.91

*** Psi4 exiting successfully. Buy a developer a beer!
