                               Psi4 1.9.1 release

  ==> Input File <==

--------------------------------------------------------------------------
molecule {
-1 1
N           0.000000           0.000000           0.000000
C           0.000000           0.000000           1.645934
}

set {
basis              cc-pvtz
reference          uks
maxiter            500
DAMPING_PERCENTAGE 1
E_CONVERGENCE      1.0E-8
D_CONVERGENCE      1.0E-8
DIIS_MAX_VECS      400
MBIS_MAXITER       8000
guess              read
}

E, wfn = energy('b3lyp', restart_file='last_wfn', return_wfn=True)
properties('b3lyp','MBIS_CHARGES', wfn=wfn)
wfn.to_file('last_wfn')
--------------------------------------------------------------------------

    Molecular point group: c2v
  Charge       = -1
  Multiplicity = 1
  Basis Set: CC-PVTZ
    Blend: CC-PVTZ
  Basis Set: (CC-PVTZ AUX)
    Blend: CC-PVTZ-JKFIT
  @DF-UKS Final Energy:   -92.70032382998218
    Total Energy =                        -92.7003238299821817
 Dipole X            :          0.0000000            0.0000000            0.0000000
 Dipole Y            :          0.0000000            0.0000000            0.0000000
 Dipole Z            :         -0.0685856            0.0022062           -0.0663794
 Magnitude           :                                                    0.0663794
    Molecular point group: c2v

    Geometry (in Angstrom), charge = -1, multiplicity = 1:

       Center              X                  Y                   Z               Mass
    ------------   -----------------  -----------------  -----------------  -----------------
         N            0.000000000000     0.000000000000    -0.759572041238    14.003074004430
         C            0.000000000000     0.000000000000     0.886361958762    12.000000000000

  Charge       = -1
  Multiplicity = 1
  Basis Set: CC-PVTZ
    Blend: CC-PVTZ
  Basis Set: (CC-PVTZ AUX)
    Blend: CC-PVTZ-JKFIT

    Orbital Energies [Eh]
    ---------------------

    Alpha Occupied:

       1A1   -14.086417     2A1   -10.002384     3A1    -0.469957
       4A1    -0.217380     5A1    -0.020893     1B2     0.002118
       1B1     0.002118

    Alpha Virtual:

       2B2     0.190096     2B1     0.190096     6A1     0.359715
       7A1     0.553211     3B2     0.559534     3B1     0.559534
       8A1     0.604571     9A1     0.716988     4B2     0.765105
       4B1     0.765105     1A2     0.929029    10A1     0.929029
       5B1     1.001816     5B2     1.001816    11A1     1.137302
      12A1     1.325874    13A1     1.368344     2A2     1.368344
       6B1     1.632757     6B2     1.632757    14A1     1.820269
       7B1     2.256839     7B2     2.256839    15A1     2.506074
       8B1     2.923722     8B2     2.923722     9B1     2.954799
       9B2     2.954799     3A2     2.955050    16A1     2.955051
      17A1     3.000344    18A1     3.230636     4A2     3.230640
      10B1     3.246331    10B2     3.246331    19A1     3.435953
      11B2     3.443291    11B1     3.443291    20A1     3.618804
      12B2     4.189833    12B1     4.189833    21A1     4.271224
      22A1     4.282200     5A2     4.282201    13B2     4.596346
      13B1     4.596346     6A2     4.761882    23A1     4.761891
      24A1     4.938502    14B2     5.113568    14B1     5.113568
      25A1     5.836367    26A1     6.895958

    Beta Occupied:

       1A1   -14.086417     2A1   -10.002384     3A1    -0.469957
       4A1    -0.217380     5A1    -0.020893     1B2     0.002118
       1B1     0.002118

    Beta Virtual:

       2B2     0.190096     2B1     0.190096     6A1     0.359715
       7A1     0.553211     3B2     0.559534     3B1     0.559534
       8A1     0.604571     9A1     0.716988     4B2     0.765105
       4B1     0.765105     1A2     0.929029    10A1     0.929029
       5B1     1.001816     5B2     1.001816    11A1     1.137302
      12A1     1.325874    13A1     1.368344     2A2     1.368344
       6B1     1.632757     6B2     1.632757    14A1     1.820269
       7B1     2.256839     7B2     2.256839    15A1     2.506074
       8B1     2.923722     8B2     2.923722     9B1     2.954799
       9B2     2.954799     3A2     2.955050    16A1     2.955051
      17A1     3.000344    18A1     3.230636     4A2     3.230640
      10B1     3.246331    10B2     3.246331    19A1     3.435953
      11B2     3.443291    11B1     3.443291    20A1     3.618804
      12B2     4.189833    12B1     4.189833    21A1     4.271224
      22A1     4.282200     5A2     4.282201    13B2     4.596346
      13B1     4.596346     6A2     4.761882    23A1     4.761891
      24A1     4.938502    14B2     5.113568    14B1     5.113568
      25A1     5.836367    26A1     6.895958

    Final Occupation by Irrep:
             A1    A2    B1    B2
    DOCC [     5,    0,    1,    1 ]
    SOCC [     0,    0,    0,    0 ]
    NA   [     5,    0,    1,    1 ]
    NB   [     5,    0,    1,    1 ]

  @DF-UKS Final Energy:   -92.70032382991322

   => Energetics <=

    Nuclear Repulsion Energy =             13.5032406209118978
    One-Electron Energy =                -155.7216799177787152
    Two-Electron Energy =                  59.3673430618673592
    DFT Exchange-Correlation Energy =      -9.8492275949137618
    Empirical Dispersion Energy =           0.0000000000000000
    VV10 Nonlocal Energy =                  0.0000000000000000
    Total Energy =                        -92.7003238299132164

  UHF NO Occupations:
  HONO-2 :    1 B2 2.0000000
  HONO-1 :    4 A1 2.0000000
  HONO-0 :    5 A1 2.0000000
  LUNO+0 :    6 A1 0.0000000
  LUNO+1 :    7 A1 0.0000000
  LUNO+2 :    8 A1 0.0000000
  LUNO+3 :    9 A1 0.0000000

Computation Completed

Properties will be evaluated at   0.000000,   0.000000,   0.000000 [a0]

Properties computed using the B3LYP density matrix

 Multipole Moments:

 ------------------------------------------------------------------------------------
     Multipole            Electronic (a.u.)      Nuclear  (a.u.)        Total (a.u.)
 ------------------------------------------------------------------------------------

 L = 1.  Multiply by 2.5417464519 to convert [e a0] to [Debye]
 Dipole X            :          0.0000000            0.0000000            0.0000000
 Dipole Y            :          0.0000000            0.0000000            0.0000000
 Dipole Z            :         -0.0685856            0.0022062           -0.0663794
 Magnitude           :                                                    0.0663794

 L = 2.  Multiply by 1.3450342976 to convert [e a0^2] to [Debye ang]
 Quadrupole XX       :        -11.1403938            0.0000000          -11.1403938
 Quadrupole XY       :          0.0000000            0.0000000            0.0000000
 Quadrupole XZ       :          0.0000000            0.0000000            0.0000000
 Quadrupole YY       :        -11.1403938            0.0000000          -11.1403938
 Quadrupole YZ       :          0.0000000            0.0000000            0.0000000
 Quadrupole ZZ       :        -46.0435926           31.2556483          -14.7879444
 Traceless XX        :         11.6343996          -10.4185494            1.2158502
 Traceless YY        :         11.6343996          -10.4185494            1.2158502
 Traceless ZZ        :        -23.2687992           20.8370988           -2.4317004

 ------------------------------------------------------------------------------------
  ==> Computing MBIS Charges <==

  Electron Count from Grid (Expected Number): 14.00000 (14.00000)
  Difference: -0.00000

  MBIS Charges: (a.u.)
   Center  Symbol  Z      Pop.       Charge
      1       N    7    7.574052   -0.574052
      2       C    6    6.425948   -0.425948

  MBIS Dipoles: [e a0]
   Center  Symbol  Z        X           Y           Z
      1       N    7   -0.000000   -0.000000   -0.010974
      2       C    6   -0.000000    0.000000   -0.165936

  MBIS Quadrupoles: [e a0^2]
   Center  Symbol  Z      XX        XY        XZ        YY        YZ        ZZ
      1       N    7   -5.3158    0.0000   -0.0000   -5.3158    0.0000   -5.4996
      2       C    6   -5.8246    0.0000    0.0000   -5.8246    0.0000   -6.3862

  MBIS Octupoles: [e a0^3]
   Center  Symbol  Z      XXX       XXY       XXZ       XYY       XYZ       XZZ       YYY       YYZ       YZZ       ZZZ
      1       N    7   -0.0000   -0.0000   -0.2103   -0.0000    0.0000   -0.0000   -0.0000   -0.2103   -0.0000   -0.3709
      2       C    6   -0.0000   -0.0000    0.0721   -0.0000   -0.0000   -0.0000    0.0000    0.0721    0.0000   -0.0403

  MBIS Radial Moments:
   Center  Symbol  Z      [a0^2]      [a0^3]      [a0^4]
      1       N    7   16.131115   37.383666   102.708287
      2       C    6   18.035486   48.714723   154.843733

  MBIS Valence Widths: [a0]
   Center  Symbol  Z     Width
      1       N    7    0.480791
      2       C    6    0.570025

*** tstop() called on Mac.lan at Sun Aug 10 17:41:09 2025
Module time:
	user time   =       3.76 seconds =       0.06 minutes
	system time =       1.71 seconds =       0.03 minutes
	total time  =          1 seconds =       0.02 minutes
Total time:
	user time   =      19.30 seconds =       0.32 minutes
	system time =       3.94 seconds =       0.07 minutes
	total time  =          2 seconds =       0.03 minutes

    Psi4 stopped on: Sunday, 10 August 2025 05:41PM
    Psi4 wall time for execution: 0:00:02.25

*** Psi4 exiting successfully. Buy a developer a beer!
