                               Psi4 1.9.1 release

  ==> Input File <==

--------------------------------------------------------------------------
molecule {
-1 3
O           0.000000           0.000000           0.000000
N           0.000000           0.000000           1.039795
}

set {
basis              cc-pvtz
reference          uks
maxiter            500
DAMPING_PERCENTAGE 1
E_CONVERGENCE      1.0E-8
D_CONVERGENCE      1.0E-8
DIIS_MAX_VECS      400
MBIS_MAXITER       8000
guess              read
}

E, wfn = energy('b3lyp', restart_file='last_wfn', return_wfn=True)
properties('b3lyp','MBIS_CHARGES', wfn=wfn)
wfn.to_file('last_wfn')
--------------------------------------------------------------------------

    Molecular point group: c2v
  Charge       = -1
  Multiplicity = 3
  Basis Set: CC-PVTZ
    Blend: CC-PVTZ
  Basis Set: (CC-PVTZ AUX)
    Blend: CC-PVTZ-JKFIT
  @DF-UKS Final Energy:  -129.83507585105303
    Total Energy =                       -129.8350758510530341
 Dipole X            :          0.0000000            0.0000000            0.0000000
 Dipole Y            :          0.0000000            0.0000000            0.0000000
 Dipole Z            :         -0.5481232           -0.0039425           -0.5520658
 Magnitude           :                                                    0.5520658
    Molecular point group: c2v

    Geometry (in Angstrom), charge = -1, multiplicity = 3:

       Center              X                  Y                   Z               Mass
    ------------   -----------------  -----------------  -----------------  -----------------
         O            0.000000000000     0.000000000000    -0.485376753653    15.994914619570
         N            0.000000000000     0.000000000000     0.554418246347    14.003074004430

  Charge       = -1
  Multiplicity = 3
  Basis Set: CC-PVTZ
    Blend: CC-PVTZ
  Basis Set: (CC-PVTZ AUX)
    Blend: CC-PVTZ-JKFIT

    Orbital Energies [Eh]
    ---------------------

    Alpha Occupied:

       1A1   -18.826382     2A1   -13.979464     3A1    -0.930129
       4A1    -0.297445     1B1    -0.193826     1B2    -0.193826
       5A1    -0.113067     2B2     0.211737     2B1     0.211737

    Alpha Virtual:

       6A1     0.522659     3B2     0.713064     3B1     0.713064
       7A1     0.740149     8A1     0.843290     4B1     0.899722
       4B2     0.899722     9A1     1.125584    10A1     1.272034
       1A2     1.272034    11A1     1.498574     5B1     1.552722
       5B2     1.552722     2A2     1.907116    12A1     1.907117
      13A1     2.121848     6B2     2.391015     6B1     2.391015
      14A1     2.630769     7B2     3.199481     7B1     3.199481
      15A1     3.500375     8B1     4.015540     8B2     4.015540
      16A1     4.105605     9B2     4.152130     9B1     4.152130
       3A2     4.192430    17A1     4.192431    10B2     4.488783
      10B1     4.488783     4A2     4.765298    18A1     4.765298
      19A1     4.886449    11B1     5.163605    11B2     5.163605
      12B1     5.455607    12B2     5.455607    20A1     5.522759
       5A2     6.157133    21A1     6.157133     6A2     6.545221
      22A1     6.545224    13B2     6.919148    13B1     6.919148
      23A1     6.987274    24A1     7.454531    14B1     7.700910
      14B2     7.700910    25A1     8.005641    26A1    16.843467

    Beta Occupied:

       1A1   -18.806084     2A1   -13.955337     3A1    -0.894798
       4A1    -0.236955     1B1    -0.122218     1B2    -0.122218
       5A1    -0.062325

    Beta Virtual:

       2B2     0.370806     2B1     0.370806     6A1     0.532662
       3B2     0.752771     3B1     0.752771     7A1     0.763210
       8A1     0.866137     4B1     0.942438     4B2     0.942438
       9A1     1.164934    10A1     1.317681     1A2     1.317681
      11A1     1.517583     5B1     1.587708     5B2     1.587708
       2A2     1.955425    12A1     1.955425    13A1     2.148327
       6B2     2.423851     6B1     2.423851    14A1     2.657367
       7B2     3.267156     7B1     3.267156    15A1     3.528090
       8B1     4.067813     8B2     4.067813    16A1     4.136557
       9B2     4.223557     9B1     4.223557    17A1     4.228940
       3A2     4.228940    10B2     4.526727    10B1     4.526727
       4A2     4.865659    18A1     4.865660    19A1     4.918857
      11B1     5.201421    11B2     5.201421    12B1     5.504934
      12B2     5.504934    20A1     5.552555     5A2     6.197184
      21A1     6.197184     6A2     6.615954    22A1     6.615957
      13B2     6.957634    13B1     6.957634    23A1     7.006759
      24A1     7.484843    14B1     7.735953    14B2     7.735953
      25A1     8.037016    26A1    16.876162

    Final Occupation by Irrep:
             A1    A2    B1    B2
    DOCC [     5,    0,    1,    1 ]
    SOCC [     0,    0,    1,    1 ]
    NA   [     5,    0,    2,    2 ]
    NB   [     5,    0,    1,    1 ]

  @DF-UKS Final Energy:  -129.83507585201610

   => Energetics <=

    Nuclear Repulsion Energy =             28.4997752417736194
    One-Electron Energy =                -239.1354010926173999
    Two-Electron Energy =                  93.6458779190806183
    DFT Exchange-Correlation Energy =     -12.8453279202529380
    Empirical Dispersion Energy =           0.0000000000000000
    VV10 Nonlocal Energy =                  0.0000000000000000
    Total Energy =                       -129.8350758520161037

  UHF NO Occupations:
  HONO-2 :    1 B1 1.9992382
  HONO-1 :    2 B1 1.0000000
  HONO-0 :    2 B2 1.0000000
  LUNO+0 :    3 B1 0.0007618
  LUNO+1 :    3 B2 0.0007618
  LUNO+2 :    6 A1 0.0007585
  LUNO+3 :    7 A1 0.0001889

Computation Completed

Properties will be evaluated at   0.000000,   0.000000,   0.000000 [a0]

Properties computed using the B3LYP density matrix

 Multipole Moments:

 ------------------------------------------------------------------------------------
     Multipole            Electronic (a.u.)      Nuclear  (a.u.)        Total (a.u.)
 ------------------------------------------------------------------------------------

 L = 1.  Multiply by 2.5417464519 to convert [e a0] to [Debye]
 Dipole X            :          0.0000000            0.0000000            0.0000000
 Dipole Y            :          0.0000000            0.0000000            0.0000000
 Dipole Z            :         -0.5481232           -0.0039425           -0.5520658
 Magnitude           :                                                    0.5520658

 L = 2.  Multiply by 1.3450342976 to convert [e a0^2] to [Debye ang]
 Quadrupole XX       :         -9.3932240            0.0000000           -9.3932240
 Quadrupole XY       :          0.0000000            0.0000000            0.0000000
 Quadrupole XZ       :          0.0000000            0.0000000            0.0000000
 Quadrupole YY       :         -9.3932240            0.0000000           -9.3932240
 Quadrupole YZ       :          0.0000000            0.0000000            0.0000000
 Quadrupole ZZ       :        -26.4899427           14.4141814          -12.0757613
 Traceless XX        :          5.6989062           -4.8047271            0.8941791
 Traceless YY        :          5.6989062           -4.8047271            0.8941791
 Traceless ZZ        :        -11.3978125            9.6094543           -1.7883582

 ------------------------------------------------------------------------------------
  ==> Computing MBIS Charges <==

  Electron Count from Grid (Expected Number): 16.00000 (16.00000)
  Difference:  0.00000

  MBIS Charges: (a.u.)
   Center  Symbol  Z      Pop.       Charge
      1       O    8    8.293721   -0.293721
      2       N    7    7.706279   -0.706279

  MBIS Dipoles: [e a0]
   Center  Symbol  Z        X           Y           Z
      1       O    8    0.000000    0.000000    0.248429
      2       N    7    0.000000   -0.000000   -0.329937

  MBIS Quadrupoles: [e a0^2]
   Center  Symbol  Z      XX        XY        XZ        YY        YZ        ZZ
      1       O    8   -3.9510   -0.0000    0.0000   -3.9510    0.0000   -4.2831
      2       N    7   -5.4423   -0.0000    0.0000   -5.4423   -0.0000   -5.6232

  MBIS Octupoles: [e a0^3]
   Center  Symbol  Z      XXX       XXY       XXZ       XYY       XYZ       XZZ       YYY       YYZ       YZZ       ZZZ
      1       O    8    0.0000   -0.0000    0.3569    0.0000   -0.0000   -0.0000   -0.0000    0.3569   -0.0000    0.4200
      2       N    7   -0.0000   -0.0000   -0.6936    0.0000   -0.0000    0.0000   -0.0000   -0.6936   -0.0000    0.0606

  MBIS Radial Moments:
   Center  Symbol  Z      [a0^2]      [a0^3]      [a0^4]
      1       O    8   12.184964   23.534116   54.620504
      2       N    7   16.507792   38.610317   106.904131

  MBIS Valence Widths: [a0]
   Center  Symbol  Z     Width
      1       O    8    0.390756
      2       N    7    0.479390

*** tstop() called on Mac.lan at Sun Aug 10 17:44:38 2025
Module time:
	user time   =       5.21 seconds =       0.09 minutes
	system time =       1.73 seconds =       0.03 minutes
	total time  =          1 seconds =       0.02 minutes
Total time:
	user time   =      18.75 seconds =       0.31 minutes
	system time =       3.64 seconds =       0.06 minutes
	total time  =          2 seconds =       0.03 minutes

    Psi4 stopped on: Sunday, 10 August 2025 05:44PM
    Psi4 wall time for execution: 0:00:02.18

*** Psi4 exiting successfully. Buy a developer a beer!
