                               Psi4 1.9.1 release

  ==> Input File <==

--------------------------------------------------------------------------
molecule {
-1 2
O           0.000000           0.000000           0.000000
C           0.000000           0.000000           1.317356
}

set {
basis              cc-pvtz
reference          uks
maxiter            500
DAMPING_PERCENTAGE 1
E_CONVERGENCE      1.0E-8
D_CONVERGENCE      1.0E-8
DIIS_MAX_VECS      400
MBIS_MAXITER       8000
guess              read
}

E, wfn = energy('b3lyp', restart_file='last_wfn', return_wfn=True)
properties('b3lyp','MBIS_CHARGES', wfn=wfn)
wfn.to_file('last_wfn')
--------------------------------------------------------------------------

    Molecular point group: c2v
  Charge       = -1
  Multiplicity = 2
  Basis Set: CC-PVTZ
    Blend: CC-PVTZ
  Basis Set: (CC-PVTZ AUX)
    Blend: CC-PVTZ-JKFIT
  @DF-UKS Final Energy:  -113.27699319041696
    Total Energy =                       -113.2769931904169596
 Dipole X            :          0.0000000            0.0000000            0.0000000
 Dipole Y            :          0.0000000            0.0000000            0.0000000
 Dipole Z            :         -0.6103986           -0.0027133           -0.6131119
 Magnitude           :                                                    0.6131119
    Molecular point group: c2v

    Geometry (in Angstrom), charge = -1, multiplicity = 2:

       Center              X                  Y                   Z               Mass
    ------------   -----------------  -----------------  -----------------  -----------------
         O            0.000000000000     0.000000000000    -0.564683701123    15.994914619570
         C            0.000000000000     0.000000000000     0.752672298877    12.000000000000

  Charge       = -1
  Multiplicity = 2
  Basis Set: CC-PVTZ
    Blend: CC-PVTZ
  Basis Set: (CC-PVTZ AUX)
    Blend: CC-PVTZ-JKFIT

    Orbital Energies [Eh]
    ---------------------

    Alpha Occupied:

       1A1   -18.858841     2A1    -9.940049     3A1    -0.717288
       4A1    -0.243511     1B1    -0.101917     1B2    -0.083339
       5A1    -0.055498     2B1     0.147030

    Alpha Virtual:

       2B2     0.235303     6A1     0.402471     3B1     0.551414
       3B2     0.566015     7A1     0.579334     8A1     0.721408
       9A1     0.815954     4B1     0.896212     4B2     0.899048
       1A2     0.938738    10A1     0.941409     5B1     1.101880
       5B2     1.103343    11A1     1.384849    12A1     1.494619
       2A2     1.793475    13A1     1.794153     6B1     2.077517
       6B2     2.082604     7B1     2.329196    14A1     2.330658
       7B2     2.338540    15A1     2.543148     8B1     2.966030
       8B2     2.966766     3A2     3.062619    16A1     3.064675
       9B1     3.247345     4A2     3.249673     9B2     3.254535
      17A1     3.254965    18A1     3.442293    10B1     3.475031
      10B2     3.478728    19A1     3.519624    11B1     4.197376
      11B2     4.199249    20A1     4.262918    12B1     5.414435
      12B2     5.414475     5A2     5.615704    21A1     5.616188
      22A1     5.867251    13B2     6.117682    13B1     6.119415
       6A2     6.538341    23A1     6.539386    24A1     6.653119
      14B1     7.003548    14B2     7.004995    25A1     7.425808
      26A1    10.055120

    Beta Occupied:

       1A1   -18.851458     2A1    -9.929417     3A1    -0.701837
       4A1    -0.218526     1B2    -0.077630     1B1    -0.052482
       5A1    -0.033721

    Beta Virtual:

       2B2     0.246340     2B1     0.278061     6A1     0.406991
       3B2     0.573358     7A1     0.595146     3B1     0.597942
       8A1     0.736573     9A1     0.821857     4B2     0.901039
       4B1     0.914829     1A2     0.968362    10A1     0.968852
       5B2     1.105034     5B1     1.128889    11A1     1.394594
      12A1     1.501875     2A2     1.806622    13A1     1.806770
       6B2     2.085469     6B1     2.106974    14A1     2.344384
       7B2     2.346961     7B1     2.378357    15A1     2.553775
       8B2     3.006876     8B1     3.006979    16A1     3.086136
       3A2     3.086217     9B2     3.258078     9B1     3.286766
      17A1     3.301850     4A2     3.303299    18A1     3.458743
      10B2     3.481635    10B1     3.508360    19A1     3.533690
      11B2     4.203132    11B1     4.226520    20A1     4.272664
      12B2     5.430589    12B1     5.430592    21A1     5.626900
       5A2     5.627206    22A1     5.877552    13B2     6.119702
      13B1     6.139706    23A1     6.564244     6A2     6.564465
      24A1     6.662773    14B2     7.007243    14B1     7.027445
      25A1     7.436303    26A1    10.068176

    Final Occupation by Irrep:
             A1    A2    B1    B2
    DOCC [     5,    0,    1,    1 ]
    SOCC [     0,    0,    1,    0 ]
    NA   [     5,    0,    2,    1 ]
    NB   [     5,    0,    1,    1 ]

  @DF-UKS Final Energy:  -113.27699318442366

   => Energetics <=

    Nuclear Repulsion Energy =             19.2814289471942288
    One-Electron Energy =                -197.2019539967639048
    Two-Electron Energy =                  76.0372363867993784
    DFT Exchange-Correlation Energy =     -11.3937045216533583
    Empirical Dispersion Energy =           0.0000000000000000
    VV10 Nonlocal Energy =                  0.0000000000000000
    Total Energy =                       -113.2769931844236595

  UHF NO Occupations:
  HONO-2 :    1 B1 1.9992274
  HONO-1 :    5 A1 1.9991816
  HONO-0 :    2 B1 1.0000000
  LUNO+0 :    6 A1 0.0008184
  LUNO+1 :    3 B1 0.0007726
  LUNO+2 :    2 B2 0.0000863
  LUNO+3 :    7 A1 0.0000522

Computation Completed

Properties will be evaluated at   0.000000,   0.000000,   0.000000 [a0]

Properties computed using the B3LYP density matrix

 Multipole Moments:

 ------------------------------------------------------------------------------------
     Multipole            Electronic (a.u.)      Nuclear  (a.u.)        Total (a.u.)
 ------------------------------------------------------------------------------------

 L = 1.  Multiply by 2.5417464519 to convert [e a0] to [Debye]
 Dipole X            :          0.0000000            0.0000000            0.0000000
 Dipole Y            :          0.0000000            0.0000000            0.0000000
 Dipole Z            :         -0.6103987           -0.0027133           -0.6131120
 Magnitude           :                                                    0.6131120

 L = 2.  Multiply by 1.3450342976 to convert [e a0^2] to [Debye ang]
 Quadrupole XX       :        -11.2573765            0.0000000          -11.2573765
 Quadrupole XY       :          0.0000000            0.0000000            0.0000000
 Quadrupole XZ       :          0.0000000            0.0000000            0.0000000
 Quadrupole YY       :         -9.6640494            0.0000000           -9.6640494
 Quadrupole YZ       :          0.0000000            0.0000000            0.0000000
 Quadrupole ZZ       :        -35.0629914           21.2479607          -13.8150306
 Traceless XX        :          7.4040959           -7.0826536            0.3214424
 Traceless YY        :          8.9974230           -7.0826536            1.9147694
 Traceless ZZ        :        -16.4015189           14.1653071           -2.2362118

 ------------------------------------------------------------------------------------
  ==> Computing MBIS Charges <==

  Electron Count from Grid (Expected Number): 15.00000 (15.00000)
  Difference: -0.00000

  MBIS Charges: (a.u.)
   Center  Symbol  Z      Pop.       Charge
      1       O    8    8.425840   -0.425840
      2       C    6    6.574160   -0.574160

  MBIS Dipoles: [e a0]
   Center  Symbol  Z        X           Y           Z
      1       O    8    0.000000    0.000000    0.100463
      2       C    6   -0.000000    0.000000   -0.351336

  MBIS Quadrupoles: [e a0^2]
   Center  Symbol  Z      XX        XY        XZ        YY        YZ        ZZ
      1       O    8   -4.3501   -0.0000   -0.0000   -4.1389   -0.0000   -4.3820
      2       C    6   -6.9073   -0.0000    0.0000   -5.5252    0.0000   -6.5727

  MBIS Octupoles: [e a0^3]
   Center  Symbol  Z      XXX       XXY       XXZ       XYY       XYZ       XZZ       YYY       YYZ       YZZ       ZZZ
      1       O    8   -0.0000    0.0000    0.1277    0.0000   -0.0000    0.0000   -0.0000    0.1563    0.0000    0.1426
      2       C    6   -0.0000    0.0000   -0.9077    0.0000    0.0000    0.0000    0.0000   -0.2274    0.0000   -0.2498

  MBIS Radial Moments:
   Center  Symbol  Z      [a0^2]      [a0^3]      [a0^4]
      1       O    8   12.870986   25.129383   58.788596
      2       C    6   19.005158   52.060216   167.440879

  MBIS Valence Widths: [a0]
   Center  Symbol  Z     Width
      1       O    8    0.398927
      2       C    6    0.575679

*** tstop() called on Mac.lan at Sun Aug 10 17:43:12 2025
Module time:
	user time   =       3.54 seconds =       0.06 minutes
	system time =       2.22 seconds =       0.04 minutes
	total time  =          0 seconds =       0.00 minutes
Total time:
	user time   =      18.87 seconds =       0.31 minutes
	system time =       4.47 seconds =       0.07 minutes
	total time  =          2 seconds =       0.03 minutes

    Psi4 stopped on: Sunday, 10 August 2025 05:43PM
    Psi4 wall time for execution: 0:00:02.26

*** Psi4 exiting successfully. Buy a developer a beer!
