                               Psi4 1.9.1 release

  ==> Input File <==

--------------------------------------------------------------------------
molecule {
-1 2
N           0.000000           0.000000           0.000000
N           0.000000           0.000000           0.611236
}

set {
basis              cc-pvtz
reference          uks
maxiter            500
DAMPING_PERCENTAGE 1
E_CONVERGENCE      1.0E-8
D_CONVERGENCE      1.0E-8
DIIS_MAX_VECS      400
MBIS_MAXITER       8000
guess              read
}

E, wfn = energy('b3lyp', restart_file='last_wfn', return_wfn=True)
properties('b3lyp','MBIS_CHARGES', wfn=wfn)
wfn.to_file('last_wfn')
--------------------------------------------------------------------------

    Molecular point group: d2h
  Charge       = -1
  Multiplicity = 2
  Basis Set: CC-PVTZ
    Blend: CC-PVTZ
  Basis Set: (CC-PVTZ AUX)
    Blend: CC-PVTZ-JKFIT
  @DF-UKS Final Energy:  -106.72522969711193
    Total Energy =                       -106.7252296971119279
 Dipole X            :          0.0000000            0.0000000            0.0000000
 Dipole Y            :          0.0000000            0.0000000            0.0000000
 Dipole Z            :          0.0000000           -0.0000000           -0.0000000
 Magnitude           :                                                    0.0000000
    Molecular point group: d2h

    Geometry (in Angstrom), charge = -1, multiplicity = 2:

       Center              X                  Y                   Z               Mass
    ------------   -----------------  -----------------  -----------------  -----------------
         N            0.000000000000     0.000000000000    -0.305618000000    14.003074004430
         N            0.000000000000     0.000000000000     0.305618000000    14.003074004430

  Charge       = -1
  Multiplicity = 2
  Basis Set: CC-PVTZ
    Blend: CC-PVTZ
  Basis Set: (CC-PVTZ AUX)
    Blend: CC-PVTZ-JKFIT

    Orbital Energies [Eh]
    ---------------------

    Alpha Occupied:

       1Ag   -14.172505     1B1u  -13.951636     2Ag    -0.831170
       1B2u   -0.433201     1B3u   -0.431571     3Ag    -0.119100
       2B1u   -0.078901     1B2g    0.442035

    Alpha Virtual:

       1B3g    0.514658     3B1u    0.545311     2B3u    0.566420
       2B2u    0.569802     4Ag     0.619338     5Ag     0.850588
       2B2g    0.984434     2B3g    1.000311     1B1g    1.161891
       6Ag     1.162699     4B1u    1.193800     3B3u    1.702111
       3B2u    1.704073     1Au     1.723155     5B1u    1.725466
       7Ag     1.793799     6B1u    1.798694     3B2g    2.064584
       3B3g    2.071171     4B2u    2.689117     4B3u    2.695605
       8Ag     3.433718     7B1u    3.713819     5B3u    3.799143
       5B2u    3.799164     2B1g    3.947855     9Ag     3.948268
       4B2g    3.955908     4B3g    3.957588     8B1u    4.298844
       6B3u    4.419713     6B2u    4.421409     2Au     4.490884
       9B1u    4.492031    10Ag     4.725300     5B2g    4.916479
       5B3g    4.916519     3B1g    4.986841    11Ag     4.987303
       6B3g    5.029360     6B2g    5.030092    12Ag     5.200043
      10B1u    5.980447     7B2u    6.803031     7B3u    6.805669
       3Au     7.092320    11B1u    7.092842    13Ag     8.283919
       7B2g    8.903927     7B3g    8.905067    12B1u   10.214915
      13B1u   30.246542

    Beta Occupied:

       1Ag   -14.171178     1B1u  -13.950158     2Ag    -0.827587
       1B2u   -0.431583     1B3u   -0.414996     3Ag    -0.109063
       2B1u   -0.060706

    Beta Virtual:

       1B3g    0.525833     1B2g    0.545662     3B1u    0.556897
       2B2u    0.574290     2B3u    0.595198     4Ag     0.631967
       5Ag     0.857354     2B3g    1.006950     2B2g    1.024438
       1B1g    1.171702     6Ag     1.172109     4B1u    1.218300
       3B2u    1.706424     3B3u    1.728214     5B1u    1.751378
       1Au     1.752072     7Ag     1.796558     6B1u    1.807561
       3B3g    2.075300     3B2g    2.092284     4B2u    2.690984
       4B3u    2.707865     8Ag     3.439374     7B1u    3.722946
       5B2u    3.806077     5B3u    3.806080     2B1g    3.953796
       9Ag     3.953939     4B3g    3.960959     4B2g    3.978957
       8B1u    4.305254     6B2u    4.421569     6B3u    4.436410
       2Au     4.509078     9B1u    4.509195    10Ag     4.731691
       5B3g    4.931845     5B2g    4.931872     3B1g    4.998592
      11Ag     4.998996     6B3g    5.030122     6B2g    5.046513
      12Ag     5.203464    10B1u    5.986667     7B2u    6.803331
       7B3u    6.817321     3Au     7.103445    11B1u    7.103492
      13Ag     8.289329     7B3g    8.906457     7B2g    8.920024
      12B1u   10.216382    13B1u   30.249531

    Final Occupation by Irrep:
             Ag   B1g   B2g   B3g    Au   B1u   B2u   B3u
    DOCC [     3,    0,    0,    0,    0,    2,    1,    1 ]
    SOCC [     0,    0,    1,    0,    0,    0,    0,    0 ]
    NA   [     3,    0,    1,    0,    0,    2,    1,    1 ]
    NB   [     3,    0,    0,    0,    0,    2,    1,    1 ]

  @DF-UKS Final Energy:  -106.72522969714890

   => Energetics <=

    Nuclear Repulsion Energy =             42.4217214346504576
    One-Electron Energy =                -230.0078414300119221
    Two-Electron Energy =                  93.0553199782390266
    DFT Exchange-Correlation Energy =     -12.1944296800264702
    Empirical Dispersion Energy =           0.0000000000000000
    VV10 Nonlocal Energy =                  0.0000000000000000
    Total Energy =                       -106.7252296971489045

  UHF NO Occupations:
  HONO-2 :    3 Ag 1.9999189
  HONO-1 :    2B1u 1.9998685
  HONO-0 :    1B2g 1.0000000
  LUNO+0 :    3B1u 0.0001315
  LUNO+1 :    4 Ag 0.0000811
  LUNO+2 :    2B3u 0.0000623
  LUNO+3 :    5 Ag 0.0000027

Computation Completed

Properties will be evaluated at   0.000000,   0.000000,   0.000000 [a0]

Properties computed using the B3LYP density matrix

 Multipole Moments:

 ------------------------------------------------------------------------------------
     Multipole            Electronic (a.u.)      Nuclear  (a.u.)        Total (a.u.)
 ------------------------------------------------------------------------------------

 L = 1.  Multiply by 2.5417464519 to convert [e a0] to [Debye]
 Dipole X            :          0.0000000            0.0000000            0.0000000
 Dipole Y            :          0.0000000            0.0000000            0.0000000
 Dipole Z            :          0.0000000           -0.0000000           -0.0000000
 Magnitude           :                                                    0.0000000

 L = 2.  Multiply by 1.3450342976 to convert [e a0^2] to [Debye ang]
 Quadrupole XX       :        -10.4797109            0.0000000          -10.4797109
 Quadrupole XY       :          0.0000000            0.0000000            0.0000000
 Quadrupole XZ       :          0.0000000            0.0000000            0.0000000
 Quadrupole YY       :         -7.7588741            0.0000000           -7.7588741
 Quadrupole YZ       :          0.0000000            0.0000000            0.0000000
 Quadrupole ZZ       :        -17.6624450            4.6696425          -12.9928025
 Traceless XX        :          1.4872991           -1.5565475           -0.0692484
 Traceless YY        :          4.2081359           -1.5565475            2.6515885
 Traceless ZZ        :         -5.6954350            3.1130950           -2.5823400

 ------------------------------------------------------------------------------------
  ==> Computing MBIS Charges <==

  Electron Count from Grid (Expected Number): 15.00000 (15.00000)
  Difference:  0.00000

  MBIS Charges: (a.u.)
   Center  Symbol  Z      Pop.       Charge
      1       N    7    7.500001   -0.500001
      2       N    7    7.500001   -0.500001

  MBIS Dipoles: [e a0]
   Center  Symbol  Z        X           Y           Z
      1       N    7   -0.000000    0.000000    0.333972
      2       N    7    0.000000    0.000000   -0.333972

  MBIS Quadrupoles: [e a0^2]
   Center  Symbol  Z      XX        XY        XZ        YY        YZ        ZZ
      1       N    7   -5.2399    0.0000    0.0000   -3.8794   -0.0000   -5.9439
      2       N    7   -5.2399   -0.0000    0.0000   -3.8794    0.0000   -5.9439

  MBIS Octupoles: [e a0^3]
   Center  Symbol  Z      XXX       XXY       XXZ       XYY       XYZ       XZZ       YYY       YYZ       YZZ       ZZZ
      1       N    7   -0.0000    0.0000    1.5545   -0.0000    0.0000   -0.0000    0.0000    0.6698    0.0000    1.4612
      2       N    7   -0.0000    0.0000   -1.5545   -0.0000    0.0000   -0.0000    0.0000   -0.6698    0.0000   -1.4612

  MBIS Radial Moments:
   Center  Symbol  Z      [a0^2]      [a0^3]      [a0^4]
      1       N    7   15.063161   36.974865   110.185161
      2       N    7   15.063161   36.974865   110.185161

  MBIS Valence Widths: [a0]
   Center  Symbol  Z     Width
      1       N    7    0.456702
      2       N    7    0.456702

*** tstop() called on Mac.lan at Sun Aug 10 17:33:01 2025
Module time:
	user time   =       3.87 seconds =       0.06 minutes
	system time =       2.12 seconds =       0.04 minutes
	total time  =          0 seconds =       0.00 minutes
Total time:
	user time   =      17.37 seconds =       0.29 minutes
	system time =       4.93 seconds =       0.08 minutes
	total time  =          2 seconds =       0.03 minutes

    Psi4 stopped on: Sunday, 10 August 2025 05:33PM
    Psi4 wall time for execution: 0:00:02.17

*** Psi4 exiting successfully. Buy a developer a beer!
