                               Psi4 1.9.1 release

  ==> Input File <==

--------------------------------------------------------------------------
molecule {
-1 2
H           0.000000           0.000000           0.000000
H           0.000000           0.000000           1.663608
}

set {
basis              cc-pvtz
reference          uks
maxiter            500
DAMPING_PERCENTAGE 1
E_CONVERGENCE      1.0E-8
D_CONVERGENCE      1.0E-8
DIIS_MAX_VECS      400
MBIS_MAXITER       8000
guess              read
}

E, wfn = energy('b3lyp', restart_file='last_wfn', return_wfn=True)
properties('b3lyp','MBIS_CHARGES', wfn=wfn)
wfn.to_file('last_wfn')
--------------------------------------------------------------------------

    Molecular point group: d2h
  Charge       = -1
  Multiplicity = 2
  Basis Set: CC-PVTZ
    Blend: CC-PVTZ
  Basis Set: (CC-PVTZ AUX)
    Blend: CC-PVTZ-JKFIT
  @DF-UKS Final Energy:    -1.05631143806606
    Total Energy =                         -1.0563114380660574
 Dipole X            :          0.0000000            0.0000000            0.0000000
 Dipole Y            :          0.0000000            0.0000000            0.0000000
 Dipole Z            :          0.0000000            0.0000000            0.0000000
 Magnitude           :                                                    0.0000000
    Molecular point group: d2h

    Geometry (in Angstrom), charge = -1, multiplicity = 2:

       Center              X                  Y                   Z               Mass
    ------------   -----------------  -----------------  -----------------  -----------------
         H            0.000000000000     0.000000000000    -0.831804000000     1.007825032230
         H            0.000000000000     0.000000000000     0.831804000000     1.007825032230

  Charge       = -1
  Multiplicity = 2
  Basis Set: CC-PVTZ
    Blend: CC-PVTZ
  Basis Set: (CC-PVTZ AUX)
    Blend: CC-PVTZ-JKFIT

    Orbital Energies [Eh]
    ---------------------

    Alpha Occupied:

       1Ag    -0.031993     1B1u    0.096238

    Alpha Virtual:

       2Ag     0.506264     2B1u    0.531213     1B2u    0.809916
       1B3u    0.809916     3Ag     0.878266     1B3g    1.010209
       1B2g    1.010209     3B1u    1.367678     4Ag     2.464157
       4B1u    2.651089     5Ag     3.247638     2B2u    3.308556
       2B3u    3.308556     6Ag     3.476080     1B1g    3.476081
       5B1u    3.533373     1Au     3.533374     2B2g    3.700535
       2B3g    3.700535     3B2u    3.877038     3B3u    3.877038
       6B1u    3.888462     3B2g    4.032009     3B3g    4.032009
       7Ag     4.133131     7B1u    4.791978

    Beta Occupied:

       1Ag     0.025600

    Beta Virtual:

       1B1u    0.210274     2Ag     0.533201     2B1u    0.580596
       1B2u    0.837955     1B3u    0.837955     3Ag     0.915472
       1B3g    1.052755     1B2g    1.052755     3B1u    1.411572
       4Ag     2.540135     4B1u    2.724248     5Ag     3.286535
       2B2u    3.354503     2B3u    3.354503     6Ag     3.524364
       1B1g    3.524365     5B1u    3.582443     1Au     3.582444
       2B3g    3.743825     2B2g    3.743825     3B2u    3.940280
       3B3u    3.940280     6B1u    3.941731     3B3g    4.100290
       3B2g    4.100290     7Ag     4.195108     7B1u    4.846593

    Final Occupation by Irrep:
             Ag   B1g   B2g   B3g    Au   B1u   B2u   B3u
    DOCC [     1,    0,    0,    0,    0,    0,    0,    0 ]
    SOCC [     0,    0,    0,    0,    0,    1,    0,    0 ]
    NA   [     1,    0,    0,    0,    0,    1,    0,    0 ]
    NB   [     1,    0,    0,    0,    0,    0,    0,    0 ]

  @DF-UKS Final Energy:    -1.05631143774802

   => Energetics <=

    Nuclear Repulsion Energy =              0.3180900853265915
    One-Electron Energy =                  -2.3557210247172744
    Two-Electron Energy =                   1.6457696278385758
    DFT Exchange-Correlation Energy =      -0.6644501261959123
    Empirical Dispersion Energy =           0.0000000000000000
    VV10 Nonlocal Energy =                  0.0000000000000000
    Total Energy =                         -1.0563114377480196

  UHF NO Occupations:
  HONO-1 :    1 Ag 1.9972480
  HONO-0 :    1B1u 1.0000000
  LUNO+0 :    2 Ag 0.0027520
  LUNO+1 :    3 Ag 0.0000000
  LUNO+2 :    4 Ag 0.0000000
  LUNO+3 :    2B1u 0.0000000

Computation Completed

Properties will be evaluated at   0.000000,   0.000000,   0.000000 [a0]

Properties computed using the B3LYP density matrix

 Multipole Moments:

 ------------------------------------------------------------------------------------
     Multipole            Electronic (a.u.)      Nuclear  (a.u.)        Total (a.u.)
 ------------------------------------------------------------------------------------

 L = 1.  Multiply by 2.5417464519 to convert [e a0] to [Debye]
 Dipole X            :          0.0000000            0.0000000            0.0000000
 Dipole Y            :          0.0000000            0.0000000            0.0000000
 Dipole Z            :          0.0000000            0.0000000            0.0000000
 Magnitude           :                                                    0.0000000

 L = 2.  Multiply by 1.3450342976 to convert [e a0^2] to [Debye ang]
 Quadrupole XX       :         -4.3923350            0.0000000           -4.3923350
 Quadrupole XY       :          0.0000000            0.0000000            0.0000000
 Quadrupole XZ       :          0.0000000            0.0000000            0.0000000
 Quadrupole YY       :         -4.3923350            0.0000000           -4.3923350
 Quadrupole YZ       :          0.0000000            0.0000000            0.0000000
 Quadrupole ZZ       :        -12.8515573            4.9416245           -7.9099328
 Traceless XX        :          2.8197408           -1.6472082            1.1725326
 Traceless YY        :          2.8197408           -1.6472082            1.1725326
 Traceless ZZ        :         -5.6394815            3.2944163           -2.3450652

 ------------------------------------------------------------------------------------
  ==> Computing MBIS Charges <==

  Electron Count from Grid (Expected Number):  3.00000 ( 3.00000)
  Difference: -0.00000

  MBIS Charges: (a.u.)
   Center  Symbol  Z      Pop.       Charge
      1       H    1    1.500000   -0.500000
      2       H    1    1.500000   -0.500000

  MBIS Dipoles: [e a0]
   Center  Symbol  Z        X           Y           Z
      1       H    1    0.000000    0.000000    0.126415
      2       H    1    0.000000   -0.000000   -0.126415

  MBIS Quadrupoles: [e a0^2]
   Center  Symbol  Z      XX        XY        XZ        YY        YZ        ZZ
      1       H    1   -2.1962    0.0000   -0.0000   -2.1962    0.0000   -2.3221
      2       H    1   -2.1962    0.0000   -0.0000   -2.1962   -0.0000   -2.3221

  MBIS Octupoles: [e a0^3]
   Center  Symbol  Z      XXX       XXY       XXZ       XYY       XYZ       XZZ       YYY       YYZ       YZZ       ZZZ
      1       H    1    0.0000   -0.0000    0.2187    0.0000    0.0000   -0.0000    0.0000    0.2187    0.0000    0.3735
      2       H    1    0.0000    0.0000   -0.2187    0.0000   -0.0000    0.0000   -0.0000   -0.2187    0.0000   -0.3735

  MBIS Radial Moments:
   Center  Symbol  Z      [a0^2]      [a0^3]      [a0^4]
      1       H    1    6.714477   20.044639   69.581161
      2       H    1    6.714477   20.044639   69.581161

  MBIS Valence Widths: [a0]
   Center  Symbol  Z     Width
      1       H    1    0.611289
      2       H    1    0.611289

*** tstop() called on Mac.lan at Sun Aug 10 17:26:37 2025
Module time:
	user time   =       0.50 seconds =       0.01 minutes
	system time =       1.36 seconds =       0.02 minutes
	total time  =          1 seconds =       0.02 minutes
Total time:
	user time   =       1.34 seconds =       0.02 minutes
	system time =       3.46 seconds =       0.06 minutes
	total time  =          1 seconds =       0.02 minutes

    Psi4 stopped on: Sunday, 10 August 2025 05:26PM
    Psi4 wall time for execution: 0:00:00.67

*** Psi4 exiting successfully. Buy a developer a beer!
