                               Psi4 1.9.1 release

  ==> Input File <==

--------------------------------------------------------------------------
molecule {
-1 2
O           0.000000           0.000000           0.000000
O           0.000000           0.000000           1.901595
}

set {
basis              cc-pvtz
reference          uks
maxiter            500
DAMPING_PERCENTAGE 1
E_CONVERGENCE      1.0E-8
D_CONVERGENCE      1.0E-8
DIIS_MAX_VECS      400
MBIS_MAXITER       8000
guess              read
}

E, wfn = energy('b3lyp', restart_file='last_wfn', return_wfn=True)
properties('b3lyp','MBIS_CHARGES', wfn=wfn)
wfn.to_file('last_wfn')
--------------------------------------------------------------------------

    Molecular point group: d2h
  Charge       = -1
  Multiplicity = 2
  Basis Set: CC-PVTZ
    Blend: CC-PVTZ
  Basis Set: (CC-PVTZ AUX)
    Blend: CC-PVTZ-JKFIT
  @DF-UKS Final Energy:  -150.28978023269855
    Total Energy =                       -150.2897802326985470
 Dipole X            :          0.0000000            0.0000000            0.0000000
 Dipole Y            :          0.0000000            0.0000000            0.0000000
 Dipole Z            :          0.0000000            0.0000000            0.0000000
 Magnitude           :                                                    0.0000000
    Molecular point group: d2h

    Geometry (in Angstrom), charge = -1, multiplicity = 2:

       Center              X                  Y                   Z               Mass
    ------------   -----------------  -----------------  -----------------  -----------------
         O            0.000000000000     0.000000000000    -0.950797500000    15.994914619570
         O            0.000000000000     0.000000000000     0.950797500000    15.994914619570

  Charge       = -1
  Multiplicity = 2
  Basis Set: CC-PVTZ
    Blend: CC-PVTZ
  Basis Set: (CC-PVTZ AUX)
    Blend: CC-PVTZ-JKFIT

    Orbital Energies [Eh]
    ---------------------

    Alpha Occupied:

       1Ag   -18.885078     1B1u  -18.885056     2Ag    -0.645897
       2B1u   -0.567306     1B2u   -0.078660     3Ag    -0.071742
       1B3u   -0.040701     1B3g   -0.027978     1B2g    0.012872

    Alpha Virtual:

       3B1u    0.158550     4B1u    0.801184     2B2u    0.803865
       2B3u    0.826326     2B3g    0.901947     4Ag     0.913483
       2B2g    0.922118     5Ag     1.036588     5B1u    1.369246
       3B2u    1.585535     3B3u    1.606336     6Ag     1.638585
       1B1g    1.727606     7Ag     1.729456     1Au     1.799944
       6B1u    1.800201     3B3g    2.012487     3B2g    2.036140
       7B1u    2.549428     4B2u    3.835888     8Ag     3.854567
       4B3u    3.870783     4B3g    3.884765     4B2g    3.919698
       8B1u    3.992362     9Ag     5.275788     5B2u    5.296954
       5B3u    5.324458     2B1g    5.391349    10Ag     5.394455
       6B2u    5.420656     6B3u    5.420874     5B3g    5.421301
       5B2g    5.421623     9B1u    5.427463     2Au     5.428585
       6B3g    5.492117     6B2g    5.519450    10B1u    5.634090
       7B2u    6.347917     7B3u    6.381393    11Ag     6.427959
       3B1g    6.434392    12Ag     6.478549    11B1u    6.488107
       3Au     6.488345     7B3g    6.676253     7B2g    6.709318
      12B1u    7.062192    13Ag     7.378665    13B1u    8.229579

    Beta Occupied:

       1Ag   -18.871333     1B1u  -18.871297     2Ag    -0.609350
       2B1u   -0.525109     3Ag    -0.059531     1B3u   -0.028619
       1B2u    0.016230     1B2g    0.026719

    Beta Virtual:

       1B3g    0.127799     3B1u    0.174447     4B1u    0.808782
       2B3u    0.832145     2B2u    0.844612     4Ag     0.922825
       2B2g    0.927535     2B3g    0.938709     5Ag     1.047727
       5B1u    1.384517     3B3u    1.608310     3B2u    1.608454
       6Ag     1.650941     1B1g    1.752324     7Ag     1.753683
       1Au     1.826770     6B1u    1.828117     3B2g    2.039409
       3B3g    2.041832     7B1u    2.562613     8Ag     3.864045
       4B3u    3.881540     4B2u    3.896953     4B2g    3.930534
       4B3g    3.946036     8B1u    4.004475     9Ag     5.295411
       5B3u    5.329237     5B2u    5.329398     2B1g    5.415163
      10Ag     5.416536     2Au     5.452612     9B1u    5.453992
       6B3u    5.455088     6B2u    5.455350     5B2g    5.457599
       5B3g    5.457874     6B2g    5.522777     6B3g    5.523301
      10B1u    5.648510     7B3u    6.388733     7B2u    6.401460
       3B1g    6.484068    11Ag     6.484126    12Ag     6.492469
       3Au     6.537805    11B1u    6.541088     7B2g    6.716217
       7B3g    6.728088    12B1u    7.074251    13Ag     7.406423
      13B1u    8.258548

    Final Occupation by Irrep:
             Ag   B1g   B2g   B3g    Au   B1u   B2u   B3u
    DOCC [     3,    0,    1,    0,    0,    2,    1,    1 ]
    SOCC [     0,    0,    0,    1,    0,    0,    0,    0 ]
    NA   [     3,    0,    1,    1,    0,    2,    1,    1 ]
    NB   [     3,    0,    1,    0,    0,    2,    1,    1 ]

  @DF-UKS Final Energy:  -150.28978023236459

   => Energetics <=

    Nuclear Repulsion Energy =             17.8099655725220209
    One-Electron Energy =                -248.1089568693511751
    Two-Electron Energy =                  93.8863061215496089
    DFT Exchange-Correlation Energy =     -13.8770950570850680
    Empirical Dispersion Energy =           0.0000000000000000
    VV10 Nonlocal Energy =                  0.0000000000000000
    Total Energy =                       -150.2897802323645919

  UHF NO Occupations:
  HONO-2 :    2B1u 1.9998116
  HONO-1 :    1B2u 1.9978463
  HONO-0 :    1B3g 1.0000000
  LUNO+0 :    2B2u 0.0021537
  LUNO+1 :    3B1u 0.0001884
  LUNO+2 :    4 Ag 0.0001589
  LUNO+3 :    2B3u 0.0000561

Computation Completed

Properties will be evaluated at   0.000000,   0.000000,   0.000000 [a0]

Properties computed using the B3LYP density matrix

 Multipole Moments:

 ------------------------------------------------------------------------------------
     Multipole            Electronic (a.u.)      Nuclear  (a.u.)        Total (a.u.)
 ------------------------------------------------------------------------------------

 L = 1.  Multiply by 2.5417464519 to convert [e a0] to [Debye]
 Dipole X            :          0.0000000            0.0000000            0.0000000
 Dipole Y            :          0.0000000            0.0000000            0.0000000
 Dipole Z            :          0.0000000            0.0000000            0.0000000
 Magnitude           :                                                    0.0000000

 L = 2.  Multiply by 1.3450342976 to convert [e a0^2] to [Debye ang]
 Quadrupole XX       :         -9.9559023            0.0000000           -9.9559023
 Quadrupole XY       :          0.0000000            0.0000000            0.0000000
 Quadrupole XZ       :          0.0000000            0.0000000            0.0000000
 Quadrupole YY       :         -9.1525468            0.0000000           -9.1525468
 Quadrupole YZ       :          0.0000000            0.0000000            0.0000000
 Quadrupole ZZ       :        -63.5960269           51.6527894          -11.9432375
 Traceless XX        :         17.6122564          -17.2175965            0.3946599
 Traceless YY        :         18.4156119          -17.2175965            1.1980154
 Traceless ZZ        :        -36.0278682           34.4351929           -1.5926753

 ------------------------------------------------------------------------------------
  ==> Computing MBIS Charges <==

  Electron Count from Grid (Expected Number): 17.00000 (17.00000)
  Difference:  0.00000

  MBIS Charges: (a.u.)
   Center  Symbol  Z      Pop.       Charge
      1       O    8    8.500001   -0.500001
      2       O    8    8.500001   -0.500001

  MBIS Dipoles: [e a0]
   Center  Symbol  Z        X           Y           Z
      1       O    8    0.000000   -0.000000    0.023238
      2       O    8    0.000000   -0.000000   -0.023238

  MBIS Quadrupoles: [e a0^2]
   Center  Symbol  Z      XX        XY        XZ        YY        YZ        ZZ
      1       O    8   -4.9779   -0.0000   -0.0000   -4.5763   -0.0000   -4.2740
      2       O    8   -4.9779   -0.0000   -0.0000   -4.5763    0.0000   -4.2740

  MBIS Octupoles: [e a0^3]
   Center  Symbol  Z      XXX       XXY       XXZ       XYY       XYZ       XZZ       YYY       YYZ       YZZ       ZZZ
      1       O    8   -0.0000   -0.0000    0.0006    0.0000   -0.0000   -0.0000   -0.0000   -0.0831   -0.0000   -0.3923
      2       O    8   -0.0000   -0.0000   -0.0006    0.0000   -0.0000    0.0000   -0.0000    0.0831   -0.0000    0.3923

  MBIS Radial Moments:
   Center  Symbol  Z      [a0^2]      [a0^3]      [a0^4]
      1       O    8   13.828186   27.958955   67.350036
      2       O    8   13.828186   27.958955   67.350036

  MBIS Valence Widths: [a0]
   Center  Symbol  Z     Width
      1       O    8    0.411385
      2       O    8    0.411385

*** tstop() called on Mac.lan at Sun Aug 10 17:29:01 2025
Module time:
	user time   =       3.71 seconds =       0.06 minutes
	system time =       1.78 seconds =       0.03 minutes
	total time  =          1 seconds =       0.02 minutes
Total time:
	user time   =      15.31 seconds =       0.26 minutes
	system time =       4.19 seconds =       0.07 minutes
	total time  =          2 seconds =       0.03 minutes

    Psi4 stopped on: Sunday, 10 August 2025 05:29PM
    Psi4 wall time for execution: 0:00:01.90

*** Psi4 exiting successfully. Buy a developer a beer!
