                               Psi4 1.9.1 release

  ==> Input File <==

--------------------------------------------------------------------------
molecule {
-1 2
O           0.000000           0.000000           0.000000
O           0.000000           0.000000           1.266810
}

set {
basis              cc-pvtz
reference          uks
maxiter            500
DAMPING_PERCENTAGE 1
E_CONVERGENCE      1.0E-8
D_CONVERGENCE      1.0E-8
DIIS_MAX_VECS      400
MBIS_MAXITER       8000
guess              read
}

E, wfn = energy('b3lyp', restart_file='last_wfn', return_wfn=True)
properties('b3lyp','MBIS_CHARGES', wfn=wfn)
wfn.to_file('last_wfn')
--------------------------------------------------------------------------

    Molecular point group: d2h
  Charge       = -1
  Multiplicity = 2
  Basis Set: CC-PVTZ
    Blend: CC-PVTZ
  Basis Set: (CC-PVTZ AUX)
    Blend: CC-PVTZ-JKFIT
  @DF-UKS Final Energy:  -150.37138484565781
    Total Energy =                       -150.3713848456578148
 Dipole X            :          0.0000000            0.0000000            0.0000000
 Dipole Y            :          0.0000000            0.0000000            0.0000000
 Dipole Z            :          0.0000000            0.0000000            0.0000000
 Magnitude           :                                                    0.0000000
    Molecular point group: d2h

    Geometry (in Angstrom), charge = -1, multiplicity = 2:

       Center              X                  Y                   Z               Mass
    ------------   -----------------  -----------------  -----------------  -----------------
         O            0.000000000000     0.000000000000    -0.633405000000    15.994914619570
         O            0.000000000000     0.000000000000     0.633405000000    15.994914619570

  Charge       = -1
  Multiplicity = 2
  Basis Set: CC-PVTZ
    Blend: CC-PVTZ
  Basis Set: (CC-PVTZ AUX)
    Blend: CC-PVTZ-JKFIT

    Orbital Energies [Eh]
    ---------------------

    Alpha Occupied:

       1Ag   -18.822491     1B1u  -18.822355     2Ag    -0.822745
       2B1u   -0.424344     1B2u   -0.135238     3Ag    -0.125540
       1B3u   -0.096367     1B3g    0.088247     1B2g    0.130647

    Alpha Virtual:

       3B1u    0.503109     4B1u    0.821121     2B2u    0.835461
       2B3u    0.857857     4Ag     0.874986     2B3g    0.929913
       2B2g    0.950725     5Ag     1.034021     5B1u    1.553025
       1B1g    1.617191     6Ag     1.617366     3B2u    1.643156
       3B3u    1.668710     1Au     1.975200     6B1u    1.975408
       7Ag     2.407410     3B3g    2.489487     7B1u    2.508323
       3B2g    2.515576     4B2u    3.791649     4B3u    3.826698
       8Ag     3.942036     4B3g    4.053092     4B2g    4.090766
       5B2u    5.021197     9Ag     5.026322     2B1g    5.027212
       5B3u    5.050022     8B1u    5.050779    10Ag     5.212899
       6B2u    5.351007     6B3u    5.351054     5B3g    5.532761
       5B2g    5.532775     2Au     5.975691     9B1u    5.975920
      10B1u    6.422676     3B1g    6.450830    11Ag     6.450835
       6B3g    6.583917     6B2g    6.617198     3Au     6.648337
      11B1u    6.649593     7B2u    6.715742     7B3u    6.750281
      12B1u    6.886867    12Ag     7.217245     7B3g    7.431464
       7B2g    7.461436    13Ag     7.976230    13B1u   11.382196

    Beta Occupied:

       1Ag   -18.808262     1B1u  -18.808070     2Ag    -0.794014
       2B1u   -0.381589     3Ag    -0.108246     1B3u   -0.084728
       1B2u   -0.051640     1B2g    0.145503

    Beta Virtual:

       1B3g    0.254987     3B1u    0.519722     4B1u    0.832282
       2B3u    0.863108     2B2u    0.870406     4Ag     0.881166
       2B2g    0.956735     2B3g    0.970808     5Ag     1.044679
       5B1u    1.570646     1B1g    1.638087     6Ag     1.639288
       3B2u    1.669843     3B3u    1.670404     1Au     2.004554
       6B1u    2.006086     7Ag     2.422816     7B1u    2.517699
       3B2g    2.519369     3B3g    2.521424     4B3u    3.837206
       4B2u    3.853257     8Ag     3.952405     4B2g    4.102362
       4B3g    4.116275     2B1g    5.047572     9Ag     5.048765
       5B2u    5.050650     5B3u    5.054202     8B1u    5.068134
      10Ag     5.228352     6B3u    5.385328     6B2u    5.385613
       5B2g    5.568757     5B3g    5.569049     2Au     6.001812
       9B1u    6.003324    10B1u    6.445199     3B1g    6.501621
      11Ag     6.505165     6B2g    6.624135     6B3g    6.633421
       3Au     6.696698    11B1u    6.700233     7B3u    6.756890
       7B2u    6.766100    12B1u    6.900984    12Ag     7.233099
       7B3g    7.464904     7B2g    7.465068    13Ag     8.000948
      13B1u   11.402410

    Final Occupation by Irrep:
             Ag   B1g   B2g   B3g    Au   B1u   B2u   B3u
    DOCC [     3,    0,    1,    0,    0,    2,    1,    1 ]
    SOCC [     0,    0,    0,    1,    0,    0,    0,    0 ]
    NA   [     3,    0,    1,    1,    0,    2,    1,    1 ]
    NB   [     3,    0,    1,    0,    0,    2,    1,    1 ]

  @DF-UKS Final Energy:  -150.37138484586788

   => Energetics <=

    Nuclear Repulsion Energy =             26.7343496521814750
    One-Electron Energy =                -266.1858549299026890
    Two-Electron Energy =                 103.1497540110639477
    DFT Exchange-Correlation Energy =     -14.0696335792105991
    Empirical Dispersion Energy =           0.0000000000000000
    VV10 Nonlocal Energy =                  0.0000000000000000
    Total Energy =                       -150.3713848458678797

  UHF NO Occupations:
  HONO-2 :    2B1u 1.9997108
  HONO-1 :    1B2u 1.9986514
  HONO-0 :    1B3g 1.0000000
  LUNO+0 :    2B2u 0.0013486
  LUNO+1 :    3B1u 0.0002892
  LUNO+2 :    4 Ag 0.0001449
  LUNO+3 :    2B2g 0.0000518

Computation Completed

Properties will be evaluated at   0.000000,   0.000000,   0.000000 [a0]

Properties computed using the B3LYP density matrix

 Multipole Moments:

 ------------------------------------------------------------------------------------
     Multipole            Electronic (a.u.)      Nuclear  (a.u.)        Total (a.u.)
 ------------------------------------------------------------------------------------

 L = 1.  Multiply by 2.5417464519 to convert [e a0] to [Debye]
 Dipole X            :          0.0000000            0.0000000            0.0000000
 Dipole Y            :          0.0000000            0.0000000            0.0000000
 Dipole Z            :          0.0000000            0.0000000            0.0000000
 Magnitude           :                                                    0.0000000

 L = 2.  Multiply by 1.3450342976 to convert [e a0^2] to [Debye ang]
 Quadrupole XX       :         -9.5610847            0.0000000           -9.5610847
 Quadrupole XY       :          0.0000000            0.0000000            0.0000000
 Quadrupole XZ       :          0.0000000            0.0000000            0.0000000
 Quadrupole YY       :         -8.7437642            0.0000000           -8.7437642
 Quadrupole YZ       :          0.0000000            0.0000000            0.0000000
 Quadrupole ZZ       :        -34.2253811           22.9234876          -11.3018936
 Traceless XX        :          7.9489920           -7.6411625            0.3078294
 Traceless YY        :          8.7663125           -7.6411625            1.1251500
 Traceless ZZ        :        -16.7153044           15.2823250           -1.4329794

 ------------------------------------------------------------------------------------
  ==> Computing MBIS Charges <==

  Electron Count from Grid (Expected Number): 17.00000 (17.00000)
  Difference:  0.00000

  MBIS Charges: (a.u.)
   Center  Symbol  Z      Pop.       Charge
      1       O    8    8.500000   -0.500000
      2       O    8    8.500000   -0.500000

  MBIS Dipoles: [e a0]
   Center  Symbol  Z        X           Y           Z
      1       O    8    0.000000   -0.000000    0.233780
      2       O    8    0.000000   -0.000000   -0.233780

  MBIS Quadrupoles: [e a0^2]
   Center  Symbol  Z      XX        XY        XZ        YY        YZ        ZZ
      1       O    8   -4.7805   -0.0000    0.0000   -4.3719   -0.0000   -4.3749
      2       O    8   -4.7805   -0.0000   -0.0000   -4.3719    0.0000   -4.3749

  MBIS Octupoles: [e a0^3]
   Center  Symbol  Z      XXX       XXY       XXZ       XYY       XYZ       XZZ       YYY       YYZ       YZZ       ZZZ
      1       O    8   -0.0000   -0.0000    0.3788    0.0000   -0.0000   -0.0000   -0.0000    0.2275   -0.0000   -0.0426
      2       O    8   -0.0000   -0.0000   -0.3788    0.0000    0.0000   -0.0000   -0.0000   -0.2275   -0.0000    0.0426

  MBIS Radial Moments:
   Center  Symbol  Z      [a0^2]      [a0^3]      [a0^4]
      1       O    8   13.527362   27.082153   64.751669
      2       O    8   13.527362   27.082153   64.751669

  MBIS Valence Widths: [a0]
   Center  Symbol  Z     Width
      1       O    8    0.406434
      2       O    8    0.406434

*** tstop() called on Mac.lan at Sun Aug 10 17:28:12 2025
Module time:
	user time   =       3.51 seconds =       0.06 minutes
	system time =       2.03 seconds =       0.03 minutes
	total time  =          1 seconds =       0.02 minutes
Total time:
	user time   =      15.94 seconds =       0.27 minutes
	system time =       4.07 seconds =       0.07 minutes
	total time  =          2 seconds =       0.03 minutes

    Psi4 stopped on: Sunday, 10 August 2025 05:28PM
    Psi4 wall time for execution: 0:00:01.95

*** Psi4 exiting successfully. Buy a developer a beer!
