                               Psi4 1.9.1 release

  ==> Input File <==

--------------------------------------------------------------------------
molecule {
-1 2
O           0.000000           0.000000           0.000000
C           0.000000           0.000000           1.719050
}

set {
basis              cc-pvtz
reference          uks
maxiter            500
DAMPING_PERCENTAGE 1
E_CONVERGENCE      1.0E-8
D_CONVERGENCE      1.0E-8
DIIS_MAX_VECS      400
MBIS_MAXITER       8000
guess              read
}

E, wfn = energy('b3lyp', restart_file='last_wfn', return_wfn=True)
properties('b3lyp','MBIS_CHARGES', wfn=wfn)
wfn.to_file('last_wfn')
--------------------------------------------------------------------------

    Molecular point group: c2v
  Charge       = -1
  Multiplicity = 2
  Basis Set: CC-PVTZ
    Blend: CC-PVTZ
  Basis Set: (CC-PVTZ AUX)
    Blend: CC-PVTZ-JKFIT
  @DF-UKS Final Energy:  -113.16269860383102
    Total Energy =                       -113.1626986038310179
 Dipole X            :          0.0000000            0.0000000            0.0000000
 Dipole Y            :          0.0000000            0.0000000            0.0000000
 Dipole Z            :         -0.1152249           -0.0035406           -0.1187656
 Magnitude           :                                                    0.1187656
    Molecular point group: c2v

    Geometry (in Angstrom), charge = -1, multiplicity = 2:

       Center              X                  Y                   Z               Mass
    ------------   -----------------  -----------------  -----------------  -----------------
         O            0.000000000000     0.000000000000    -0.736869545070    15.994914619570
         C            0.000000000000     0.000000000000     0.982180454930    12.000000000000

  Charge       = -1
  Multiplicity = 2
  Basis Set: CC-PVTZ
    Blend: CC-PVTZ
  Basis Set: (CC-PVTZ AUX)
    Blend: CC-PVTZ-JKFIT

    Orbital Energies [Eh]
    ---------------------

    Alpha Occupied:

       1A1   -18.847969     2A1   -10.010842     3A1    -0.597521
       4A1    -0.272407     5A1    -0.040522     1B1    -0.038728
       1B2    -0.010310     2B1     0.067507

    Alpha Virtual:

       2B2     0.156484     6A1     0.298666     3B1     0.538307
       7A1     0.541479     3B2     0.551029     8A1     0.606185
       9A1     0.833810     4B1     0.883908     4B2     0.889711
       1A2     0.921734    10A1     0.923993     5B1     1.026544
       5B2     1.026647    11A1     1.228529    12A1     1.510940
       2A2     1.791193    13A1     1.791810     6B1     1.911185
       6B2     1.912846    14A1     2.037661     7B1     2.237497
       7B2     2.251537    15A1     2.620902     8B1     2.929972
       8B2     2.930649     3A2     2.955959    16A1     2.958207
       9B1     3.081112     9B2     3.084517    17A1     3.111331
       4A2     3.191713    18A1     3.197112    10B1     3.357176
      10B2     3.365241    19A1     3.471049    11B1     3.962470
      11B2     3.970914    20A1     4.020240    21A1     4.764353
      12B1     5.449447    12B2     5.449518     5A2     5.464489
      22A1     5.465057    13B2     5.616105    13B1     5.617965
      23A1     5.872396     6A2     6.519175    24A1     6.520668
      14B1     6.741610    14B2     6.747138    25A1     7.163063
      26A1     8.443833

    Beta Occupied:

       1A1   -18.848218     2A1    -9.995540     3A1    -0.597713
       4A1    -0.225080     5A1    -0.032622     1B2    -0.024732
       1B1     0.001736

    Beta Virtual:

       2B2     0.174810     2B1     0.207996     6A1     0.311966
       7A1     0.549980     3B2     0.568412     3B1     0.591580
       8A1     0.627542     9A1     0.836502     4B2     0.881615
       4B1     0.899278     1A2     0.963083    10A1     0.963197
       5B2     1.031966     5B1     1.050924    11A1     1.239963
      12A1     1.512011     2A2     1.791202    13A1     1.791296
       6B2     1.909362     6B1     1.928393    14A1     2.043726
       7B2     2.272572     7B1     2.304642    15A1     2.638739
       8B2     2.986260     8B1     2.986424    16A1     2.993013
       3A2     2.993497     9B2     3.098014     9B1     3.124741
      17A1     3.125860    18A1     3.265180     4A2     3.266019
      10B2     3.377866    10B1     3.407839    19A1     3.494029
      11B2     3.955027    11B1     3.979864    20A1     4.040980
      21A1     4.769630    12B2     5.448842    12B1     5.448869
      22A1     5.462999     5A2     5.463044    13B2     5.605765
      13B1     5.625392    23A1     5.872154    24A1     6.520277
       6A2     6.520337    14B2     6.730824    14B1     6.754149
      25A1     7.161951    26A1     8.443321

    Final Occupation by Irrep:
             A1    A2    B1    B2
    DOCC [     5,    0,    1,    1 ]
    SOCC [     0,    0,    1,    0 ]
    NA   [     5,    0,    2,    1 ]
    NB   [     5,    0,    1,    1 ]

  @DF-UKS Final Energy:  -113.16269862642660

   => Energetics <=

    Nuclear Repulsion Energy =             14.7758972177423580
    One-Electron Energy =                -188.2869871499215151
    Two-Electron Energy =                  71.6237033203970554
    DFT Exchange-Correlation Energy =     -11.2753120146445127
    Empirical Dispersion Energy =           0.0000000000000000
    VV10 Nonlocal Energy =                  0.0000000000000000
    Total Energy =                       -113.1626986264266037

  UHF NO Occupations:
  HONO-2 :    5 A1 1.9986762
  HONO-1 :    1 B2 1.9800020
  HONO-0 :    2 B1 1.0000000
  LUNO+0 :    2 B2 0.0199980
  LUNO+1 :    6 A1 0.0013238
  LUNO+2 :    3 B1 0.0008055
  LUNO+3 :    7 A1 0.0003431

Computation Completed

Properties will be evaluated at   0.000000,   0.000000,   0.000000 [a0]

Properties computed using the B3LYP density matrix

 Multipole Moments:

 ------------------------------------------------------------------------------------
     Multipole            Electronic (a.u.)      Nuclear  (a.u.)        Total (a.u.)
 ------------------------------------------------------------------------------------

 L = 1.  Multiply by 2.5417464519 to convert [e a0] to [Debye]
 Dipole X            :          0.0000000            0.0000000            0.0000000
 Dipole Y            :          0.0000000            0.0000000            0.0000000
 Dipole Z            :         -0.1152249           -0.0035406           -0.1187655
 Magnitude           :                                                    0.1187655

 L = 2.  Multiply by 1.3450342976 to convert [e a0^2] to [Debye ang]
 Quadrupole XX       :        -11.2273848            0.0000000          -11.2273848
 Quadrupole XY       :          0.0000000            0.0000000            0.0000000
 Quadrupole XZ       :          0.0000000            0.0000000            0.0000000
 Quadrupole YY       :         -9.9642478            0.0000000           -9.9642478
 Quadrupole YZ       :          0.0000000            0.0000000            0.0000000
 Quadrupole ZZ       :        -50.4110526           36.1816163          -14.2294362
 Traceless XX        :         12.6401769          -12.0605388            0.5796382
 Traceless YY        :         13.9033139          -12.0605388            1.8427751
 Traceless ZZ        :        -26.5434909           24.1210776           -2.4224133

 ------------------------------------------------------------------------------------
  ==> Computing MBIS Charges <==

  Electron Count from Grid (Expected Number): 15.00000 (15.00000)
  Difference: -0.00000

  MBIS Charges: (a.u.)
   Center  Symbol  Z      Pop.       Charge
      1       O    8    8.607135   -0.607135
      2       C    6    6.392864   -0.392864

  MBIS Dipoles: [e a0]
   Center  Symbol  Z        X           Y           Z
      1       O    8   -0.000000    0.000000    0.020916
      2       C    6   -0.000000   -0.000000   -0.255931

  MBIS Quadrupoles: [e a0^2]
   Center  Symbol  Z      XX        XY        XZ        YY        YZ        ZZ
      1       O    8   -4.8844    0.0000   -0.0000   -4.6483   -0.0000   -4.6204
      2       C    6   -6.3430    0.0000    0.0000   -5.3160    0.0000   -6.0701

  MBIS Octupoles: [e a0^3]
   Center  Symbol  Z      XXX       XXY       XXZ       XYY       XYZ       XZZ       YYY       YYZ       YZZ       ZZZ
      1       O    8   -0.0000   -0.0000    0.0021   -0.0000    0.0000   -0.0000   -0.0000   -0.0287   -0.0000   -0.1946
      2       C    6   -0.0000   -0.0000   -0.3764   -0.0000    0.0000    0.0000    0.0000   -0.0022    0.0000    0.0419

  MBIS Radial Moments:
   Center  Symbol  Z      [a0^2]      [a0^3]      [a0^4]
      1       O    8   14.153037   28.650056   69.122053
      2       C    6   17.729107   47.738730   151.408705

  MBIS Valence Widths: [a0]
   Center  Symbol  Z     Width
      1       O    8    0.413329
      2       C    6    0.566754

*** tstop() called on Mac.lan at Sun Aug 10 17:43:52 2025
Module time:
	user time   =       3.58 seconds =       0.06 minutes
	system time =       2.34 seconds =       0.04 minutes
	total time  =          0 seconds =       0.00 minutes
Total time:
	user time   =      20.26 seconds =       0.34 minutes
	system time =       4.92 seconds =       0.08 minutes
	total time  =          2 seconds =       0.03 minutes

    Psi4 stopped on: Sunday, 10 August 2025 05:43PM
    Psi4 wall time for execution: 0:00:02.42

*** Psi4 exiting successfully. Buy a developer a beer!
