                               Psi4 1.9.1 release

  ==> Input File <==

--------------------------------------------------------------------------
molecule {
-1 3
O           0.000000           0.000000           0.000000
N           0.000000           0.000000           1.873702
}

set {
basis              cc-pvtz
reference          uks
maxiter            500
DAMPING_PERCENTAGE 1
E_CONVERGENCE      1.0E-8
D_CONVERGENCE      1.0E-8
DIIS_MAX_VECS      400
MBIS_MAXITER       8000
guess              read
}

E, wfn = energy('b3lyp', restart_file='last_wfn', return_wfn=True)
properties('b3lyp','MBIS_CHARGES', wfn=wfn)
wfn.to_file('last_wfn')
--------------------------------------------------------------------------

    Molecular point group: c2v
  Charge       = -1
  Multiplicity = 3
  Basis Set: CC-PVTZ
    Blend: CC-PVTZ
  Basis Set: (CC-PVTZ AUX)
    Blend: CC-PVTZ-JKFIT
  @DF-UKS Final Energy:  -129.80710106945375
    Total Energy =                       -129.8071010694537506
 Dipole X            :          0.0000000            0.0000000            0.0000000
 Dipole Y            :          0.0000000            0.0000000            0.0000000
 Dipole Z            :          0.3104846           -0.0071044            0.3033802
 Magnitude           :                                                    0.3033802
    Molecular point group: c2v

    Geometry (in Angstrom), charge = -1, multiplicity = 3:

       Center              X                  Y                   Z               Mass
    ------------   -----------------  -----------------  -----------------  -----------------
         O            0.000000000000     0.000000000000    -0.874644900267    15.994914619570
         N            0.000000000000     0.000000000000     0.999057099733    14.003074004430

  Charge       = -1
  Multiplicity = 3
  Basis Set: CC-PVTZ
    Blend: CC-PVTZ
  Basis Set: (CC-PVTZ AUX)
    Blend: CC-PVTZ-JKFIT

    Orbital Energies [Eh]
    ---------------------

    Alpha Occupied:

       1A1   -18.833487     2A1   -14.130465     3A1    -0.582320
       4A1    -0.460412     1B2    -0.058519     1B1    -0.058519
       5A1    -0.049873     2B2     0.024763     2B1     0.024763

    Alpha Virtual:

       6A1     0.215176     7A1     0.676186     3B1     0.693890
       3B2     0.693890     8A1     0.821926     4B1     0.897352
       4B2     0.897352     9A1     0.914304     1A2     1.272360
      10A1     1.272360     5B2     1.284328     5B1     1.284328
      11A1     1.299744    12A1     1.551842     2A2     1.804395
      13A1     1.804397     6B2     1.958004     6B1     1.958004
      14A1     2.301512     7B1     3.052022     7B2     3.052022
      15A1     3.231009    16A1     3.820740     8B1     3.919510
       8B2     3.919510     9B2     4.114379     9B1     4.114379
      17A1     4.124433     3A2     4.124434    10B1     4.156485
      10B2     4.156485    18A1     4.366075     4A2     4.634915
      19A1     4.634939    11B1     4.700458    11B2     4.700458
      20A1     4.993060     5A2     5.461467    21A1     5.461478
      12B2     5.464515    12B1     5.464515    13B1     5.550134
      13B2     5.550134    22A1     5.669486    23A1     5.783697
      24A1     6.512799     6A2     6.512844    14B1     6.636144
      14B2     6.636144    25A1     6.950620    26A1     8.108320

    Beta Occupied:

       1A1   -18.829408     2A1   -14.091436     3A1    -0.563566
       4A1    -0.347464     5A1    -0.034026     1B2     0.027556
       1B1     0.027556

    Beta Virtual:

       2B2     0.176562     2B1     0.176562     6A1     0.238798
       7A1     0.708133     3B2     0.760992     3B1     0.760992
       8A1     0.848667     4B1     0.914281     4B2     0.914281
       9A1     0.922352    10A1     1.314438     5B2     1.323364
       5B1     1.323364    11A1     1.349955     1A2     1.349955
      12A1     1.573273     2A2     1.821828    13A1     1.821829
       6B2     1.966554     6B1     1.966554    14A1     2.317030
       7B1     3.151755     7B2     3.151755    15A1     3.272023
      16A1     3.827321     8B1     3.941666     8B2     3.941666
      17A1     4.205582     3A2     4.205584     9B2     4.219422
       9B1     4.219422    10B1     4.221364    10B2     4.221364
      18A1     4.413017     4A2     4.777750    19A1     4.777772
      11B1     4.794097    11B2     4.794097    20A1     5.039229
       5A2     5.466900    21A1     5.466910    12B2     5.489271
      12B1     5.489271    13B1     5.547351    13B2     5.547351
      22A1     5.725879    23A1     5.803064    24A1     6.547820
       6A2     6.547865    14B1     6.634608    14B2     6.634608
      25A1     6.927407    26A1     8.123503

    Final Occupation by Irrep:
             A1    A2    B1    B2
    DOCC [     5,    0,    1,    1 ]
    SOCC [     0,    0,    1,    1 ]
    NA   [     5,    0,    2,    2 ]
    NB   [     5,    0,    1,    1 ]

  @DF-UKS Final Energy:  -129.80710104532264

   => Energetics <=

    Nuclear Repulsion Energy =             15.8157080461674280
    One-Electron Energy =                -214.3100774953882706
    Two-Electron Energy =                  81.1988343266797727
    DFT Exchange-Correlation Energy =     -12.5115659227815765
    Empirical Dispersion Energy =           0.0000000000000000
    VV10 Nonlocal Energy =                  0.0000000000000000
    Total Energy =                       -129.8071010453226393

  UHF NO Occupations:
  HONO-2 :    5 A1 1.9622532
  HONO-1 :    2 B1 1.0000000
  HONO-0 :    2 B2 1.0000000
  LUNO+0 :    6 A1 0.0377468
  LUNO+1 :    3 B1 0.0012798
  LUNO+2 :    3 B2 0.0012798
  LUNO+3 :    7 A1 0.0007590

Computation Completed

Properties will be evaluated at   0.000000,   0.000000,   0.000000 [a0]

Properties computed using the B3LYP density matrix

 Multipole Moments:

 ------------------------------------------------------------------------------------
     Multipole            Electronic (a.u.)      Nuclear  (a.u.)        Total (a.u.)
 ------------------------------------------------------------------------------------

 L = 1.  Multiply by 2.5417464519 to convert [e a0] to [Debye]
 Dipole X            :          0.0000000            0.0000000            0.0000000
 Dipole Y            :          0.0000000            0.0000000            0.0000000
 Dipole Z            :          0.3104860           -0.0071044            0.3033815
 Magnitude           :                                                    0.3033815

 L = 2.  Multiply by 1.3450342976 to convert [e a0^2] to [Debye ang]
 Quadrupole XX       :         -9.9187278            0.0000000           -9.9187278
 Quadrupole XY       :          0.0000000            0.0000000            0.0000000
 Quadrupole XZ       :          0.0000000            0.0000000            0.0000000
 Quadrupole YY       :         -9.9187278            0.0000000           -9.9187278
 Quadrupole YZ       :          0.0000000            0.0000000            0.0000000
 Quadrupole ZZ       :        -59.6566058           46.8053583          -12.8512475
 Traceless XX        :         16.5792927          -15.6017861            0.9775066
 Traceless YY        :         16.5792927          -15.6017861            0.9775066
 Traceless ZZ        :        -33.1585853           31.2035722           -1.9550131

 ------------------------------------------------------------------------------------
  ==> Computing MBIS Charges <==

  Electron Count from Grid (Expected Number): 16.00000 (16.00000)
  Difference:  0.00000

  MBIS Charges: (a.u.)
   Center  Symbol  Z      Pop.       Charge
      1       O    8    8.662815   -0.662815
      2       N    7    7.337185   -0.337185

  MBIS Dipoles: [e a0]
   Center  Symbol  Z        X           Y           Z
      1       O    8   -0.000000   -0.000000   -0.017614
      2       N    7    0.000000    0.000000   -0.137943

  MBIS Quadrupoles: [e a0^2]
   Center  Symbol  Z      XX        XY        XZ        YY        YZ        ZZ
      1       O    8   -5.0348    0.0000    0.0000   -5.0348    0.0000   -4.4977
      2       N    7   -4.8839    0.0000   -0.0000   -4.8839   -0.0000   -4.8784

  MBIS Octupoles: [e a0^3]
   Center  Symbol  Z      XXX       XXY       XXZ       XYY       XYZ       XZZ       YYY       YYZ       YZZ       ZZZ
      1       O    8    0.0000   -0.0000   -0.0658   -0.0000    0.0000    0.0000    0.0000   -0.0658    0.0000   -0.5181
      2       N    7    0.0000   -0.0000   -0.0139    0.0000   -0.0000    0.0000   -0.0000   -0.0139    0.0000    0.1339

  MBIS Radial Moments:
   Center  Symbol  Z      [a0^2]      [a0^3]      [a0^4]
      1       O    8   14.567292   29.823877   72.547699
      2       N    7   14.646206   33.034880   88.407972

  MBIS Valence Widths: [a0]
   Center  Symbol  Z     Width
      1       O    8    0.417699
      2       N    7    0.466922

*** tstop() called on Mac.lan at Sun Aug 10 17:47:45 2025
Module time:
	user time   =       3.58 seconds =       0.06 minutes
	system time =       2.14 seconds =       0.04 minutes
	total time  =          1 seconds =       0.02 minutes
Total time:
	user time   =      18.45 seconds =       0.31 minutes
	system time =       4.34 seconds =       0.07 minutes
	total time  =          3 seconds =       0.05 minutes

    Psi4 stopped on: Sunday, 10 August 2025 05:47PM
    Psi4 wall time for execution: 0:00:02.20

*** Psi4 exiting successfully. Buy a developer a beer!
