                               Psi4 1.9.1 release

  ==> Input File <==

--------------------------------------------------------------------------
molecule {
-1 3
C           0.000000           0.000000           0.000000
H           0.000000           0.000000           1.672922
}

set {
basis              cc-pvtz
reference          uks
maxiter            500
DAMPING_PERCENTAGE 1
E_CONVERGENCE      1.0E-8
D_CONVERGENCE      1.0E-8
DIIS_MAX_VECS      400
MBIS_MAXITER       8000
guess              read
}

E, wfn = energy('b3lyp', restart_file='last_wfn', return_wfn=True)
properties('b3lyp','MBIS_CHARGES', wfn=wfn)
wfn.to_file('last_wfn')
--------------------------------------------------------------------------

    Molecular point group: c2v
  Charge       = -1
  Multiplicity = 3
  Basis Set: CC-PVTZ
    Blend: CC-PVTZ
  Basis Set: (CC-PVTZ AUX)
    Blend: CC-PVTZ-JKFIT
  @DF-UKS Final Energy:   -38.48752656729381
    Total Energy =                        -38.4875265672938127
 Dipole X            :          0.0000000            0.0000000            0.0000000
 Dipole Y            :          0.0000000            0.0000000            0.0000000
 Dipole Z            :         -2.0313660            1.4468030           -0.5845630
 Magnitude           :                                                    0.5845630
    Molecular point group: c2v

    Geometry (in Angstrom), charge = -1, multiplicity = 3:

       Center              X                  Y                   Z               Mass
    ------------   -----------------  -----------------  -----------------  -----------------
         C            0.000000000000     0.000000000000    -0.129615263458    12.000000000000
         H            0.000000000000     0.000000000000     1.543306736542     1.007825032230

  Charge       = -1
  Multiplicity = 3
  Basis Set: CC-PVTZ
    Blend: CC-PVTZ
  Basis Set: (CC-PVTZ AUX)
    Blend: CC-PVTZ-JKFIT

    Orbital Energies [Eh]
    ---------------------

    Alpha Occupied:

       1A1    -9.943460     2A1    -0.271164     3A1     0.000924
       1B2     0.057513     1B1     0.057513

    Alpha Virtual:

       4A1     0.236922     5A1     0.505480     2B2     0.552091
       2B1     0.552091     6A1     0.572401     7A1     0.713793
       3B2     0.824791     3B1     0.824791     1A2     0.944283
       8A1     0.944283     9A1     1.072611     4B1     1.165649
       4B2     1.165649    10A1     1.460739     5B2     2.226909
       5B1     2.226909    11A1     2.352897    12A1     2.711274
       6B1     2.873160     6B2     2.873160    13A1     2.906262
      14A1     2.947828     2A2     2.947828     7B1     2.961263
       7B2     2.961263    15A1     3.211818     3A2     3.211819
       8B2     3.271433     8B1     3.271433    16A1     3.509914
      17A1     3.544396     4A2     3.544410     9B1     3.848371
       9B2     3.848371    18A1     3.948657    10B1     4.106189
      10B2     4.106189    19A1     4.295588    20A1     5.207571

    Beta Occupied:

       1A1    -9.917777     2A1    -0.179546     3A1     0.015167

    Beta Virtual:

       1B2     0.221709     1B1     0.221709     4A1     0.257312
       5A1     0.504469     6A1     0.593151     2B2     0.622309
       2B1     0.622309     7A1     0.761834     3B2     0.841748
       3B1     0.841748     8A1     1.020722     1A2     1.020722
       9A1     1.091130     4B1     1.191181     4B2     1.191181
      10A1     1.471603     5B2     2.307313     5B1     2.307313
      11A1     2.371177    12A1     2.710928     6B1     2.911565
       6B2     2.911565    13A1     2.939360    14A1     3.012081
       2A2     3.012082     7B1     3.057888     7B2     3.057888
      15A1     3.328903     3A2     3.328904     8B2     3.339716
       8B1     3.339716    16A1     3.543472    17A1     3.544560
       4A2     3.544574     9B2     3.846553     9B1     3.846553
      18A1     3.992473    10B1     4.104134    10B2     4.104134
      19A1     4.291730    20A1     5.222600

    Final Occupation by Irrep:
             A1    A2    B1    B2
    DOCC [     3,    0,    0,    0 ]
    SOCC [     0,    0,    1,    1 ]
    NA   [     3,    0,    1,    1 ]
    NB   [     3,    0,    0,    0 ]

  @DF-UKS Final Energy:   -38.48752656695335

   => Energetics <=

    Nuclear Repulsion Energy =              1.8979147049414140
    One-Electron Energy =                 -57.2166664143752968
    Two-Electron Energy =                  21.5068837150941619
    DFT Exchange-Correlation Energy =      -4.6756585726136297
    Empirical Dispersion Energy =           0.0000000000000000
    VV10 Nonlocal Energy =                  0.0000000000000000
    Total Energy =                        -38.4875265669533491

  UHF NO Occupations:
  HONO-2 :    3 A1 1.9948556
  HONO-1 :    1 B1 1.0000000
  HONO-0 :    1 B2 1.0000000
  LUNO+0 :    4 A1 0.0051444
  LUNO+1 :    5 A1 0.0011432
  LUNO+2 :    6 A1 0.0000011
  LUNO+3 :    7 A1 0.0000000

Computation Completed

Properties will be evaluated at   0.000000,   0.000000,   0.000000 [a0]

Properties computed using the B3LYP density matrix

 Multipole Moments:

 ------------------------------------------------------------------------------------
     Multipole            Electronic (a.u.)      Nuclear  (a.u.)        Total (a.u.)
 ------------------------------------------------------------------------------------

 L = 1.  Multiply by 2.5417464519 to convert [e a0] to [Debye]
 Dipole X            :          0.0000000            0.0000000            0.0000000
 Dipole Y            :          0.0000000            0.0000000            0.0000000
 Dipole Z            :         -2.0313660            1.4468030           -0.5845630
 Magnitude           :                                                    0.5845630

 L = 2.  Multiply by 1.3450342976 to convert [e a0^2] to [Debye ang]
 Quadrupole XX       :         -8.3031932            0.0000000           -8.3031932
 Quadrupole XY       :          0.0000000            0.0000000            0.0000000
 Quadrupole XZ       :          0.0000000            0.0000000            0.0000000
 Quadrupole YY       :         -8.3031932            0.0000000           -8.3031932
 Quadrupole YZ       :          0.0000000            0.0000000            0.0000000
 Quadrupole ZZ       :        -19.9274145            8.8655126          -11.0619019
 Traceless XX        :          3.8747405           -2.9551709            0.9195696
 Traceless YY        :          3.8747405           -2.9551709            0.9195696
 Traceless ZZ        :         -7.7494809            5.9103418           -1.8391392

 ------------------------------------------------------------------------------------
  ==> Computing MBIS Charges <==

  Electron Count from Grid (Expected Number):  8.00000 ( 8.00000)
  Difference: -0.00000

  MBIS Charges: (a.u.)
   Center  Symbol  Z      Pop.       Charge
      1       C    6    6.689342   -0.689342
      2       H    1    1.310658   -0.310658

  MBIS Dipoles: [e a0]
   Center  Symbol  Z        X           Y           Z
      1       C    6   -0.000000   -0.000000    0.170974
      2       H    1    0.000000   -0.000000   -0.018372

  MBIS Quadrupoles: [e a0^2]
   Center  Symbol  Z      XX        XY        XZ        YY        YZ        ZZ
      1       C    6   -6.6845   -0.0000    0.0000   -6.6845    0.0000   -6.5442
      2       H    1   -1.6187   -0.0000    0.0000   -1.6187   -0.0000   -1.6431

  MBIS Octupoles: [e a0^3]
   Center  Symbol  Z      XXX       XXY       XXZ       XYY       XYZ       XZZ       YYY       YYZ       YZZ       ZZZ
      1       C    6    0.0000    0.0000    0.0984   -0.0000    0.0000   -0.0000   -0.0000    0.0984   -0.0000   -0.7874
      2       H    1    0.0000    0.0000   -0.1043    0.0000   -0.0000    0.0000   -0.0000   -0.1043   -0.0000   -0.1446

  MBIS Radial Moments:
   Center  Symbol  Z      [a0^2]      [a0^3]      [a0^4]
      1       C    6   19.913233   55.436031   182.353368
      2       H    1    4.880467   13.474598   43.710236

  MBIS Valence Widths: [a0]
   Center  Symbol  Z     Width
      1       C    6    0.582323
      2       H    1    0.556035

*** tstop() called on Mac.lan at Sun Aug 10 17:36:32 2025
Module time:
	user time   =       2.92 seconds =       0.05 minutes
	system time =       1.42 seconds =       0.02 minutes
	total time  =          0 seconds =       0.00 minutes
Total time:
	user time   =      14.01 seconds =       0.23 minutes
	system time =       3.31 seconds =       0.06 minutes
	total time  =          1 seconds =       0.02 minutes

    Psi4 stopped on: Sunday, 10 August 2025 05:36PM
    Psi4 wall time for execution: 0:00:01.68

*** Psi4 exiting successfully. Buy a developer a beer!
