                               Psi4 1.9.1 release

  ==> Input File <==

--------------------------------------------------------------------------
molecule {
-1 1
N           0.000000           0.000000           0.000000
C           0.000000           0.000000           1.041549
}

set {
basis              cc-pvtz
reference          uks
maxiter            500
DAMPING_PERCENTAGE 1
E_CONVERGENCE      1.0E-8
D_CONVERGENCE      1.0E-8
DIIS_MAX_VECS      400
MBIS_MAXITER       8000
guess              read
}

E, wfn = energy('b3lyp', restart_file='last_wfn', return_wfn=True)
properties('b3lyp','MBIS_CHARGES', wfn=wfn)
wfn.to_file('last_wfn')
--------------------------------------------------------------------------

    Molecular point group: c2v
  Charge       = -1
  Multiplicity = 1
  Basis Set: CC-PVTZ
    Blend: CC-PVTZ
  Basis Set: (CC-PVTZ AUX)
    Blend: CC-PVTZ-JKFIT
  @DF-UKS Final Energy:   -92.83753791998922
    Total Energy =                        -92.8375379199892166
 Dipole X            :          0.0000000            0.0000000            0.0000000
 Dipole Y            :          0.0000000            0.0000000            0.0000000
 Dipole Z            :         -0.3232183            0.0013961           -0.3218222
 Magnitude           :                                                    0.3218222
    Molecular point group: c2v

    Geometry (in Angstrom), charge = -1, multiplicity = 1:

       Center              X                  Y                   Z               Mass
    ------------   -----------------  -----------------  -----------------  -----------------
         N            0.000000000000     0.000000000000    -0.480658094419    14.003074004430
         C            0.000000000000     0.000000000000     0.560890905581    12.000000000000

  Charge       = -1
  Multiplicity = 1
  Basis Set: CC-PVTZ
    Blend: CC-PVTZ
  Basis Set: (CC-PVTZ AUX)
    Blend: CC-PVTZ-JKFIT

    Orbital Energies [Eh]
    ---------------------

    Alpha Occupied:

       1A1   -13.975895     2A1    -9.833685     3A1    -0.638904
       4A1    -0.109900     1B1    -0.078217     1B2    -0.078217
       5A1    -0.012092

    Alpha Virtual:

       2B1     0.354224     2B2     0.354224     6A1     0.414192
       7A1     0.567113     3B1     0.569786     3B2     0.569786
       8A1     0.711706     4B1     0.795042     4B2     0.795042
       9A1     0.939491     1A2     0.939491    10A1     1.078521
       5B2     1.209914     5B1     1.209914    11A1     1.212373
      12A1     1.502277     2A2     1.502277    13A1     1.782552
       6B1     1.859359     6B2     1.859359    14A1     2.188112
       7B1     2.291544     7B2     2.291544    15A1     2.645229
       8B2     2.971719     8B1     2.971719    16A1     3.112087
      17A1     3.118338     3A2     3.118338     9B2     3.243594
       9B1     3.243594    18A1     3.323247     4A2     3.323248
      10B1     3.367634    10B2     3.367634    19A1     3.595966
      11B1     3.849176    11B2     3.849176    12B2     4.299602
      12B1     4.299602    20A1     4.583179     5A2     4.837474
      21A1     4.837476    22A1     5.027920     6A2     5.027921
      13B1     5.215085    13B2     5.215085    23A1     5.540134
      24A1     5.795980    14B1     6.240704    14B2     6.240704
      25A1     7.102414    26A1    14.947075

    Beta Occupied:

       1A1   -13.975895     2A1    -9.833685     3A1    -0.638904
       4A1    -0.109900     1B2    -0.078217     1B1    -0.078217
       5A1    -0.012092

    Beta Virtual:

       2B1     0.354224     2B2     0.354224     6A1     0.414192
       7A1     0.567113     3B1     0.569786     3B2     0.569786
       8A1     0.711706     4B1     0.795042     4B2     0.795042
       9A1     0.939491     1A2     0.939491    10A1     1.078521
       5B2     1.209914     5B1     1.209914    11A1     1.212373
      12A1     1.502277     2A2     1.502277    13A1     1.782552
       6B1     1.859359     6B2     1.859359    14A1     2.188112
       7B1     2.291544     7B2     2.291544    15A1     2.645229
       8B2     2.971719     8B1     2.971719    16A1     3.112087
      17A1     3.118338     3A2     3.118338     9B2     3.243594
       9B1     3.243594    18A1     3.323247     4A2     3.323248
      10B1     3.367634    10B2     3.367634    19A1     3.595966
      11B1     3.849176    11B2     3.849176    12B2     4.299602
      12B1     4.299602    20A1     4.583179     5A2     4.837474
      21A1     4.837476    22A1     5.027920     6A2     5.027921
      13B1     5.215085    13B2     5.215085    23A1     5.540134
      24A1     5.795980    14B1     6.240704    14B2     6.240704
      25A1     7.102414    26A1    14.947075

    Final Occupation by Irrep:
             A1    A2    B1    B2
    DOCC [     5,    0,    1,    1 ]
    SOCC [     0,    0,    0,    0 ]
    NA   [     5,    0,    1,    1 ]
    NB   [     5,    0,    1,    1 ]

  @DF-UKS Final Energy:   -92.83753791996666

   => Energetics <=

    Nuclear Repulsion Energy =             21.3388355690802811
    One-Electron Energy =                -171.5521322627752738
    Two-Electron Energy =                  67.5852041176895000
    DFT Exchange-Correlation Energy =     -10.2094453439611730
    Empirical Dispersion Energy =           0.0000000000000000
    VV10 Nonlocal Energy =                  0.0000000000000000
    Total Energy =                        -92.8375379199666639

  UHF NO Occupations:
  HONO-2 :    4 A1 2.0000000
  HONO-1 :    1 B2 2.0000000
  HONO-0 :    5 A1 2.0000000
  LUNO+0 :    6 A1 0.0000000
  LUNO+1 :    7 A1 0.0000000
  LUNO+2 :    8 A1 0.0000000
  LUNO+3 :    9 A1 0.0000000

Computation Completed

Properties will be evaluated at   0.000000,   0.000000,   0.000000 [a0]

Properties computed using the B3LYP density matrix

 Multipole Moments:

 ------------------------------------------------------------------------------------
     Multipole            Electronic (a.u.)      Nuclear  (a.u.)        Total (a.u.)
 ------------------------------------------------------------------------------------

 L = 1.  Multiply by 2.5417464519 to convert [e a0] to [Debye]
 Dipole X            :          0.0000000            0.0000000            0.0000000
 Dipole Y            :          0.0000000            0.0000000            0.0000000
 Dipole Z            :         -0.3232183            0.0013961           -0.3218222
 Magnitude           :                                                    0.3218222

 L = 2.  Multiply by 1.3450342976 to convert [e a0^2] to [Debye ang]
 Quadrupole XX       :        -10.0051911            0.0000000          -10.0051911
 Quadrupole XY       :          0.0000000            0.0000000            0.0000000
 Quadrupole XZ       :          0.0000000            0.0000000            0.0000000
 Quadrupole YY       :        -10.0051911            0.0000000          -10.0051911
 Quadrupole YZ       :          0.0000000            0.0000000            0.0000000
 Quadrupole ZZ       :        -25.9950213           12.5159290          -13.4790924
 Traceless XX        :          5.3299434           -4.1719763            1.1579671
 Traceless YY        :          5.3299434           -4.1719763            1.1579671
 Traceless ZZ        :        -10.6598868            8.3439527           -2.3159342

 ------------------------------------------------------------------------------------
  ==> Computing MBIS Charges <==

  Electron Count from Grid (Expected Number): 14.00000 (14.00000)
  Difference: -0.00000

  MBIS Charges: (a.u.)
   Center  Symbol  Z      Pop.       Charge
      1       N    7    7.470904   -0.470904
      2       C    6    6.529096   -0.529096

  MBIS Dipoles: [e a0]
   Center  Symbol  Z        X           Y           Z
      1       N    7    0.000000   -0.000000    0.101210
      2       C    6   -0.000000   -0.000000   -0.289955

  MBIS Quadrupoles: [e a0^2]
   Center  Symbol  Z      XX        XY        XZ        YY        YZ        ZZ
      1       N    7   -4.5339   -0.0000   -0.0000   -4.5339   -0.0000   -5.1926
      2       C    6   -5.4713    0.0000    0.0000   -5.4713    0.0000   -6.5051

  MBIS Octupoles: [e a0^3]
   Center  Symbol  Z      XXX       XXY       XXZ       XYY       XYZ       XZZ       YYY       YYZ       YZZ       ZZZ
      1       N    7    0.0000   -0.0000    0.2095    0.0000    0.0000    0.0000   -0.0000    0.2095    0.0000    0.6471
      2       C    6   -0.0000   -0.0000   -0.4887   -0.0000    0.0000    0.0000    0.0000   -0.4887    0.0000   -1.2267

  MBIS Radial Moments:
   Center  Symbol  Z      [a0^2]      [a0^3]      [a0^4]
      1       N    7   14.260342   31.601252   83.808816
      2       C    6   17.447682   46.292387   144.921831

  MBIS Valence Widths: [a0]
   Center  Symbol  Z     Width
      1       N    7    0.453126
      2       C    6    0.551435

*** tstop() called on Mac.lan at Sun Aug 10 17:39:08 2025
Module time:
	user time   =       3.29 seconds =       0.05 minutes
	system time =       2.17 seconds =       0.04 minutes
	total time  =          1 seconds =       0.02 minutes
Total time:
	user time   =      18.19 seconds =       0.30 minutes
	system time =       4.31 seconds =       0.07 minutes
	total time  =          2 seconds =       0.03 minutes

    Psi4 stopped on: Sunday, 10 August 2025 05:39PM
    Psi4 wall time for execution: 0:00:02.18

*** Psi4 exiting successfully. Buy a developer a beer!
