                               Psi4 1.9.1 release

  ==> Input File <==

--------------------------------------------------------------------------
molecule {
-1 2
C           0.000000           0.000000           0.000000
C           0.000000           0.000000           0.852635
}

set {
basis              cc-pvtz
reference          uks
maxiter            500
DAMPING_PERCENTAGE 1
E_CONVERGENCE      1.0E-8
D_CONVERGENCE      1.0E-8
DIIS_MAX_VECS      400
MBIS_MAXITER       8000
guess              read
}

E, wfn = energy('b3lyp', restart_file='last_wfn', return_wfn=True)
properties('b3lyp','MBIS_CHARGES', wfn=wfn)
wfn.to_file('last_wfn')
--------------------------------------------------------------------------

    Molecular point group: d2h
  Charge       = -1
  Multiplicity = 2
  Basis Set: CC-PVTZ
    Blend: CC-PVTZ
  Basis Set: (CC-PVTZ AUX)
    Blend: CC-PVTZ-JKFIT
  @DF-UKS Final Energy:   -75.49617093898920
    Total Energy =                        -75.4961709389891951
 Dipole X            :          0.0000000            0.0000000            0.0000000
 Dipole Y            :          0.0000000            0.0000000            0.0000000
 Dipole Z            :          0.0000000            0.0000000            0.0000000
 Magnitude           :                                                    0.0000000
    Molecular point group: d2h

    Geometry (in Angstrom), charge = -1, multiplicity = 2:

       Center              X                  Y                   Z               Mass
    ------------   -----------------  -----------------  -----------------  -----------------
         C            0.000000000000     0.000000000000    -0.426317500000    12.000000000000
         C            0.000000000000     0.000000000000     0.426317500000    12.000000000000

  Charge       = -1
  Multiplicity = 2
  Basis Set: CC-PVTZ
    Blend: CC-PVTZ
  Basis Set: (CC-PVTZ AUX)
    Blend: CC-PVTZ-JKFIT

    Orbital Energies [Eh]
    ---------------------

    Alpha Occupied:

       1Ag    -9.846831     1B1u   -9.796390     2Ag    -0.496513
       1B2u   -0.089852     1B3u   -0.089852     2B1u   -0.026315
       3Ag    -0.014504

    Alpha Virtual:

       1B3g    0.397583     1B2g    0.397583     3B1u    0.405208
       4Ag     0.481374     2B3u    0.493301     2B2u    0.493301
       5Ag     0.669017     2B3g    0.743514     2B2g    0.743514
       1B1g    0.888988     6Ag     0.888988     4B1u    0.898138
       3B3u    1.200797     3B2u    1.200797     5B1u    1.238084
       1Au     1.246869     6B1u    1.246869     7Ag     1.348476
       3B3g    1.458441     3B2g    1.458441     4B2u    2.104531
       4B3u    2.104531     7B1u    2.538953     8Ag     2.569964
       4B3g    2.755205     4B2g    2.755205     5B2u    2.778503
       5B3u    2.778503     9Ag     2.842000     2B1g    2.842000
       8B1u    2.893398     6B3u    3.074877     6B2u    3.074877
      10Ag     3.232107     2Au     3.269506     9B1u    3.269506
       5B3g    3.403955     5B2g    3.403955     3B1g    3.448739
      11Ag     3.448740     6B3g    3.459704     6B2g    3.459704
      12Ag     3.801743    10B1u    4.002039     7B3u    4.423211
       7B2u    4.423211     3Au     4.623309    11B1u    4.623309
       7B3g    5.835863     7B2g    5.835863    12B1u    6.014586
      13Ag     6.462402    13B1u   19.585822

    Beta Occupied:

       1Ag    -9.834140     1B1u   -9.785499     2Ag    -0.458791
       1B2u   -0.078925     1B3u   -0.078925     2B1u    0.034863

    Beta Virtual:

       3Ag     0.123744     1B3g    0.408021     1B2g    0.408021
       3B1u    0.417830     2B3u    0.498843     2B2u    0.498843
       4Ag     0.502535     5Ag     0.694460     2B3g    0.758018
       2B2g    0.758018     1B1g    0.891904     6Ag     0.891904
       4B1u    0.919170     3B3u    1.223272     3B2u    1.223272
       1Au     1.254931     5B1u    1.254931     6B1u    1.261010
       7Ag     1.383629     3B3g    1.473054     3B2g    1.473054
       4B2u    2.115504     4B3u    2.115504     7B1u    2.600266
       8Ag     2.600772     4B3g    2.765842     4B2g    2.765842
       5B2u    2.779624     5B3u    2.779624     9Ag     2.847313
       2B1g    2.847314     8B1u    2.908900     6B3u    3.121715
       6B2u    3.121715    10Ag     3.284462     2Au     3.289606
       9B1u    3.289606     5B3g    3.441234     5B2g    3.441234
       6B3g    3.464796     6B2g    3.464796     3B1g    3.468966
      11Ag     3.468966    12Ag     3.834791    10B1u    4.040665
       7B3u    4.451445     7B2u    4.451445    11B1u    4.632902
       3Au     4.632902     7B3g    5.865291     7B2g    5.865291
      12B1u    6.062451    13Ag     6.489631    13B1u   19.603537

    Final Occupation by Irrep:
             Ag   B1g   B2g   B3g    Au   B1u   B2u   B3u
    DOCC [     2,    0,    0,    0,    0,    2,    1,    1 ]
    SOCC [     1,    0,    0,    0,    0,    0,    0,    0 ]
    NA   [     3,    0,    0,    0,    0,    2,    1,    1 ]
    NB   [     2,    0,    0,    0,    0,    2,    1,    1 ]

  @DF-UKS Final Energy:   -75.49617094112428

   => Energetics <=

    Nuclear Repulsion Energy =             22.3429481362130282
    One-Electron Energy =                -148.4926920615245933
    Two-Electron Energy =                  59.8580502782550496
    DFT Exchange-Correlation Energy =      -9.2044772940677575
    Empirical Dispersion Energy =           0.0000000000000000
    VV10 Nonlocal Energy =                  0.0000000000000000
    Total Energy =                        -75.4961709411242765

  UHF NO Occupations:
  HONO-2 :    2 Ag 1.9996989
  HONO-1 :    2B1u 1.9982573
  HONO-0 :    3 Ag 1.0000000
  LUNO+0 :    3B1u 0.0017427
  LUNO+1 :    4 Ag 0.0003011
  LUNO+2 :    2B2u 0.0000548
  LUNO+3 :    2B3u 0.0000548

Computation Completed

Properties will be evaluated at   0.000000,   0.000000,   0.000000 [a0]

Properties computed using the B3LYP density matrix

 Multipole Moments:

 ------------------------------------------------------------------------------------
     Multipole            Electronic (a.u.)      Nuclear  (a.u.)        Total (a.u.)
 ------------------------------------------------------------------------------------

 L = 1.  Multiply by 2.5417464519 to convert [e a0] to [Debye]
 Dipole X            :          0.0000000            0.0000000            0.0000000
 Dipole Y            :          0.0000000            0.0000000            0.0000000
 Dipole Z            :          0.0000000            0.0000000            0.0000000
 Magnitude           :                                                    0.0000000

 L = 2.  Multiply by 1.3450342976 to convert [e a0^2] to [Debye ang]
 Quadrupole XX       :         -9.9053025            0.0000000           -9.9053025
 Quadrupole XY       :          0.0000000            0.0000000            0.0000000
 Quadrupole XZ       :          0.0000000            0.0000000            0.0000000
 Quadrupole YY       :         -9.9053025            0.0000000           -9.9053025
 Quadrupole YZ       :          0.0000000            0.0000000            0.0000000
 Quadrupole ZZ       :        -21.0455070            7.7883472          -13.2571598
 Traceless XX        :          3.7134015           -2.5961157            1.1172858
 Traceless YY        :          3.7134015           -2.5961157            1.1172858
 Traceless ZZ        :         -7.4268030            5.1922314           -2.2345716

 ------------------------------------------------------------------------------------
  ==> Computing MBIS Charges <==

  Electron Count from Grid (Expected Number): 13.00000 (13.00000)
  Difference:  0.00000

  MBIS Charges: (a.u.)
   Center  Symbol  Z      Pop.       Charge
      1       C    6    6.500000   -0.500000
      2       C    6    6.500000   -0.500000

  MBIS Dipoles: [e a0]
   Center  Symbol  Z        X           Y           Z
      1       C    6   -0.000000   -0.000000    0.100510
      2       C    6   -0.000000   -0.000000   -0.100510

  MBIS Quadrupoles: [e a0^2]
   Center  Symbol  Z      XX        XY        XZ        YY        YZ        ZZ
      1       C    6   -4.9527    0.0000    0.0000   -4.9527   -0.0000   -6.1421
      2       C    6   -4.9527    0.0000   -0.0000   -4.9527    0.0000   -6.1421

  MBIS Octupoles: [e a0^3]
   Center  Symbol  Z      XXX       XXY       XXZ       XYY       XYZ       XZZ       YYY       YYZ       YZZ       ZZZ
      1       C    6   -0.0000   -0.0000    0.5103   -0.0000    0.0000   -0.0000    0.0000    0.5103   -0.0000    2.0300
      2       C    6   -0.0000   -0.0000   -0.5103   -0.0000   -0.0000   -0.0000    0.0000   -0.5103    0.0000   -2.0300

  MBIS Radial Moments:
   Center  Symbol  Z      [a0^2]      [a0^3]      [a0^4]
      1       C    6   16.047422   42.038653   132.656120
      2       C    6   16.047422   42.038653   132.656120

  MBIS Valence Widths: [a0]
   Center  Symbol  Z     Width
      1       C    6    0.525374
      2       C    6    0.525374

*** tstop() called on Mac.lan at Sun Aug 10 17:29:55 2025
Module time:
	user time   =       3.72 seconds =       0.06 minutes
	system time =       2.09 seconds =       0.03 minutes
	total time  =          0 seconds =       0.00 minutes
Total time:
	user time   =      15.43 seconds =       0.26 minutes
	system time =       4.57 seconds =       0.08 minutes
	total time  =          1 seconds =       0.02 minutes

    Psi4 stopped on: Sunday, 10 August 2025 05:29PM
    Psi4 wall time for execution: 0:00:01.95

*** Psi4 exiting successfully. Buy a developer a beer!
