                               Psi4 1.9.1 release

  ==> Input File <==

--------------------------------------------------------------------------
molecule {
-1 2
N           0.000000           0.000000           0.000000
N           0.000000           0.000000           1.448047
}

set {
basis              cc-pvtz
reference          uks
maxiter            500
DAMPING_PERCENTAGE 1
E_CONVERGENCE      1.0E-8
D_CONVERGENCE      1.0E-8
DIIS_MAX_VECS      400
MBIS_MAXITER       8000
guess              read
}

E, wfn = energy('b3lyp', restart_file='last_wfn', return_wfn=True)
properties('b3lyp','MBIS_CHARGES', wfn=wfn)
wfn.to_file('last_wfn')
--------------------------------------------------------------------------

    Molecular point group: d2h
  Charge       = -1
  Multiplicity = 2
  Basis Set: CC-PVTZ
    Blend: CC-PVTZ
  Basis Set: (CC-PVTZ AUX)
    Blend: CC-PVTZ-JKFIT
  @DF-UKS Final Energy:  -109.41770963929697
    Total Energy =                       -109.4177096392969730
 Dipole X            :          0.0000000            0.0000000            0.0000000
 Dipole Y            :          0.0000000            0.0000000            0.0000000
 Dipole Z            :          0.0000000           -0.0000000           -0.0000000
 Magnitude           :                                                    0.0000000
    Molecular point group: d2h

    Geometry (in Angstrom), charge = -1, multiplicity = 2:

       Center              X                  Y                   Z               Mass
    ------------   -----------------  -----------------  -----------------  -----------------
         N            0.000000000000     0.000000000000    -0.724023500000    14.003074004430
         N            0.000000000000     0.000000000000     0.724023500000    14.003074004430

  Charge       = -1
  Multiplicity = 2
  Basis Set: CC-PVTZ
    Blend: CC-PVTZ
  Basis Set: (CC-PVTZ AUX)
    Blend: CC-PVTZ-JKFIT

    Orbital Energies [Eh]
    ---------------------

    Alpha Occupied:

       1Ag   -14.069778     1B1u  -14.069612     2Ag    -0.579331
       2B1u   -0.290767     1B3u   -0.059515     3Ag    -0.055010
       1B2u   -0.030774     1B2g    0.111076

    Alpha Virtual:

       1B3g    0.206215     3B1u    0.445681     2B3u    0.709511
       4B1u    0.709822     2B2u    0.715812     4Ag     0.722617
       2B2g    0.779715     2B3g    0.791803     5Ag     0.810648
       5B1u    1.165435     1B1g    1.208085     6Ag     1.209231
       3B2u    1.264336     3B3u    1.265508     1Au     1.479235
       6B1u    1.480696     7Ag     1.856816     3B2g    1.888575
       3B3g    1.889821     7B1u    1.954538     4B3u    3.036975
       4B2u    3.050453     8Ag     3.156610     4B2g    3.231104
       4B3g    3.242994     5B2u    3.863699     5B3u    3.866848
       2B1g    3.877025     9Ag     3.878199     8B1u    3.906662
      10Ag     3.957079     6B3u    4.112922     6B2u    4.113186
       5B2g    4.251523     5B3g    4.251792     2Au     4.570526
       9B1u    4.572282     3B1g    4.689175    11Ag     4.692426
      10B1u    4.803995     3Au     4.867313    11B1u    4.870448
       6B2g    4.875260     6B3g    4.883773     7B3u    4.936802
       7B2u    4.943584    12B1u    5.205255    12Ag     5.426458
       7B3g    5.656034     7B2g    5.657608    13Ag     5.947878
      13B1u    8.623461

    Beta Occupied:

       1Ag   -14.058492     1B1u  -14.058283     2Ag    -0.554609
       2B1u   -0.254287     3Ag    -0.041550     1B2u   -0.021399
       1B3u    0.010958

    Beta Virtual:

       1B3g    0.218367     1B2g    0.252909     3B1u    0.459417
       4B1u    0.719442     2B2u    0.720707     4Ag     0.729788
       2B3u    0.741666     2B3g    0.797936     5Ag     0.817767
       2B2g    0.818431     5B1u    1.180617     1B1g    1.226986
       6Ag     1.227118     3B2u    1.265424     3B3u    1.288028
       1Au     1.506553     6B1u    1.506676     7Ag     1.869723
       3B3g    1.892774     3B2g    1.915327     7B1u    1.962315
       4B2u    3.058403     4B3u    3.088256     8Ag     3.164278
       4B3g    3.252245     4B2g    3.284602     5B2u    3.866836
       5B3u    3.892509     9Ag     3.894279     2B1g    3.895963
       8B1u    3.920829    10Ag     3.973065     6B2u    4.145201
       6B3u    4.145249     5B3g    4.284831     5B2g    4.284852
       2Au     4.598734     9B1u    4.598783     3B1g    4.736197
      11Ag     4.736206    10B1u    4.819575     6B3g    4.888868
       3Au     4.908293    11B1u    4.911343     6B2g    4.918211
       7B2u    4.948150     7B3u    4.978384    12B1u    5.216844
      12Ag     5.438971     7B3g    5.658638     7B2g    5.684898
      13Ag     5.968629    13B1u    8.639694

    Final Occupation by Irrep:
             Ag   B1g   B2g   B3g    Au   B1u   B2u   B3u
    DOCC [     3,    0,    0,    0,    0,    2,    1,    1 ]
    SOCC [     0,    0,    1,    0,    0,    0,    0,    0 ]
    NA   [     3,    0,    1,    0,    0,    2,    1,    1 ]
    NB   [     3,    0,    0,    0,    0,    2,    1,    1 ]

  @DF-UKS Final Energy:  -109.41770963937020

   => Energetics <=

    Nuclear Repulsion Energy =             17.9066586394157135
    One-Electron Energy =                -188.5930706858137853
    Two-Electron Energy =                  72.4284126630536065
    DFT Exchange-Correlation Energy =     -11.1597102560257397
    Empirical Dispersion Energy =           0.0000000000000000
    VV10 Nonlocal Energy =                  0.0000000000000000
    Total Energy =                       -109.4177096393702016

  UHF NO Occupations:
  HONO-2 :    2B1u 1.9996159
  HONO-1 :    1B3u 1.9983399
  HONO-0 :    1B2g 1.0000000
  LUNO+0 :    2B3u 0.0016601
  LUNO+1 :    3B1u 0.0003841
  LUNO+2 :    4 Ag 0.0001933
  LUNO+3 :    2B2u 0.0000525

Computation Completed

Properties will be evaluated at   0.000000,   0.000000,   0.000000 [a0]

Properties computed using the B3LYP density matrix

 Multipole Moments:

 ------------------------------------------------------------------------------------
     Multipole            Electronic (a.u.)      Nuclear  (a.u.)        Total (a.u.)
 ------------------------------------------------------------------------------------

 L = 1.  Multiply by 2.5417464519 to convert [e a0] to [Debye]
 Dipole X            :          0.0000000            0.0000000            0.0000000
 Dipole Y            :          0.0000000            0.0000000            0.0000000
 Dipole Z            :          0.0000000           -0.0000000           -0.0000000
 Magnitude           :                                                    0.0000000

 L = 2.  Multiply by 1.3450342976 to convert [e a0^2] to [Debye ang]
 Quadrupole XX       :        -10.7596023            0.0000000          -10.7596023
 Quadrupole XY       :          0.0000000            0.0000000            0.0000000
 Quadrupole XZ       :          0.0000000            0.0000000            0.0000000
 Quadrupole YY       :         -9.7379931            0.0000000           -9.7379931
 Quadrupole YZ       :          0.0000000            0.0000000            0.0000000
 Quadrupole ZZ       :        -39.3772136           26.2078319          -13.1693816
 Traceless XX        :          9.1986673           -8.7359440            0.4627234
 Traceless YY        :         10.2202766           -8.7359440            1.4843326
 Traceless ZZ        :        -19.4189439           17.4718880           -1.9470559

 ------------------------------------------------------------------------------------
  ==> Computing MBIS Charges <==

  Electron Count from Grid (Expected Number): 15.00000 (15.00000)
  Difference:  0.00000

  MBIS Charges: (a.u.)
   Center  Symbol  Z      Pop.       Charge
      1       N    7    7.500000   -0.500000
      2       N    7    7.500000   -0.500000

  MBIS Dipoles: [e a0]
   Center  Symbol  Z        X           Y           Z
      1       N    7   -0.000000    0.000000    0.138557
      2       N    7    0.000000    0.000000   -0.138557

  MBIS Quadrupoles: [e a0^2]
   Center  Symbol  Z      XX        XY        XZ        YY        YZ        ZZ
      1       N    7   -5.3798    0.0000    0.0000   -4.8690   -0.0000   -5.2695
      2       N    7   -5.3798   -0.0000   -0.0000   -4.8690    0.0000   -5.2695

  MBIS Octupoles: [e a0^3]
   Center  Symbol  Z      XXX       XXY       XXZ       XYY       XYZ       XZZ       YYY       YYZ       YZZ       ZZZ
      1       N    7   -0.0000    0.0000    0.1724    0.0000    0.0000   -0.0000   -0.0000   -0.0235    0.0000   -0.1187
      2       N    7   -0.0000   -0.0000   -0.1724    0.0000   -0.0000   -0.0000    0.0000    0.0235    0.0000    0.1187

  MBIS Radial Moments:
   Center  Symbol  Z      [a0^2]      [a0^3]      [a0^4]
      1       N    7   15.518346   35.456351   95.926298
      2       N    7   15.518346   35.456351   95.926298

  MBIS Valence Widths: [a0]
   Center  Symbol  Z     Width
      1       N    7    0.474290
      2       N    7    0.474290

*** tstop() called on Mac.lan at Sun Aug 10 17:33:55 2025
Module time:
	user time   =       4.38 seconds =       0.07 minutes
	system time =       1.80 seconds =       0.03 minutes
	total time  =          0 seconds =       0.00 minutes
Total time:
	user time   =      16.73 seconds =       0.28 minutes
	system time =       4.15 seconds =       0.07 minutes
	total time  =          2 seconds =       0.03 minutes

    Psi4 stopped on: Sunday, 10 August 2025 05:33PM
    Psi4 wall time for execution: 0:00:02.05

*** Psi4 exiting successfully. Buy a developer a beer!
