                               Psi4 1.9.1 release

  ==> Input File <==

--------------------------------------------------------------------------
molecule {
-1 2
O           0.000000           0.000000           0.000000
O           0.000000           0.000000           0.695503
}

set {
basis              cc-pvtz
reference          uks
maxiter            500
DAMPING_PERCENTAGE 1
E_CONVERGENCE      1.0E-8
D_CONVERGENCE      1.0E-8
DIIS_MAX_VECS      400
MBIS_MAXITER       8000
guess              read
}

E, wfn = energy('b3lyp', restart_file='last_wfn', return_wfn=True)
properties('b3lyp','MBIS_CHARGES', wfn=wfn)
wfn.to_file('last_wfn')
--------------------------------------------------------------------------

    Molecular point group: d2h
  Charge       = -1
  Multiplicity = 2
  Basis Set: CC-PVTZ
    Blend: CC-PVTZ
  Basis Set: (CC-PVTZ AUX)
    Blend: CC-PVTZ-JKFIT
  @DF-UKS Final Energy:  -148.46673779309771
    Total Energy =                       -148.4667377930977068
 Dipole X            :          0.0000000            0.0000000            0.0000000
 Dipole Y            :          0.0000000            0.0000000            0.0000000
 Dipole Z            :          0.0000000            0.0000000            0.0000000
 Magnitude           :                                                    0.0000000
    Molecular point group: d2h

    Geometry (in Angstrom), charge = -1, multiplicity = 2:

       Center              X                  Y                   Z               Mass
    ------------   -----------------  -----------------  -----------------  -----------------
         O            0.000000000000     0.000000000000    -0.347751500000    15.994914619570
         O            0.000000000000     0.000000000000     0.347751500000    15.994914619570

  Charge       = -1
  Multiplicity = 2
  Basis Set: CC-PVTZ
    Blend: CC-PVTZ
  Basis Set: (CC-PVTZ AUX)
    Blend: CC-PVTZ-JKFIT

    Orbital Energies [Eh]
    ---------------------

    Alpha Occupied:

       1Ag   -18.884647     1B1u  -18.843106     2Ag    -1.452988
       1B2u   -0.543232     1B3u   -0.508391     3Ag    -0.283605
       2B1u   -0.280956     1B3g    0.374220     1B2g    0.407234

    Alpha Virtual:

       3B1u    0.618082     2B2u    0.690954     2B3u    0.711724
       4Ag     0.763341     2B3g    1.002871     5Ag     1.021935
       2B2g    1.027162     1B1g    1.475065     6Ag     1.475476
       4B1u    1.512542     5B1u    2.011773     3B2u    2.085797
       3B3u    2.115751     1Au     2.215610     6B1u    2.216517
       7Ag     2.316631     3B3g    2.592930     3B2g    2.617159
       4B2u    3.553942     4B3u    3.583390     7B1u    4.038434
       8Ag     4.518876     4B3g    4.560654     4B2g    4.592525
       5B2u    4.869132     5B3u    4.869137     8B1u    4.968777
       2B1g    5.092249     9Ag     5.092735     6B2u    5.731282
       6B3u    5.759718    10Ag     6.040108     5B3g    6.049927
       5B2g    6.049957     6B3g    6.192259     6B2g    6.220375
       9B1u    6.319996     2Au     6.320126    11Ag     6.434620
       3B1g    6.436927    12Ag     6.449111    10B1u    7.249467
       7B2u    7.652876     7B3u    7.681465     3Au     8.032838
      11B1u    8.033051    12B1u    9.984247     7B3g   10.588669
       7B2g   10.618468    13Ag    11.998740    13B1u   35.284560

    Beta Occupied:

       1Ag   -18.875560     1B1u  -18.833824     2Ag    -1.442329
       1B3u   -0.500310     1B2u   -0.488901     3Ag    -0.259189
       2B1u   -0.244799     1B2g    0.418908

    Beta Virtual:

       1B3g    0.515030     3B1u    0.627527     2B2u    0.715298
       2B3u    0.716002     4Ag     0.771133     5Ag     1.035313
       2B2g    1.036021     2B3g    1.060718     1B1g    1.491978
       6Ag     1.492929     4B1u    1.534393     5B1u    2.030568
       3B3u    2.120421     3B2u    2.125785     1Au     2.249182
       6B1u    2.250895     7Ag     2.323397     3B2g    2.622757
       3B3g    2.631502     4B2u    3.588011     4B3u    3.589523
       7B1u    4.051712     8Ag     4.530781     4B2g    4.601370
       4B3g    4.607911     5B3u    4.888870     5B2u    4.888938
       8B1u    4.994215     2B1g    5.105888     9Ag     5.106702
       6B3u    5.764361     6B2u    5.767614    10Ag     6.054281
       5B2g    6.081489     5B3g    6.081604     6B2g    6.224218
       6B3g    6.227250     2Au     6.355777     9B1u    6.357582
      11Ag     6.457018     3B1g    6.470010    12Ag     6.471866
      10B1u    7.263703     7B2u    7.683010     7B3u    7.684754
       3Au     8.058348    11B1u    8.059472    12B1u    9.994757
       7B2g   10.624276     7B3g   10.627384    13Ag    12.017672
      13B1u   35.296332

    Final Occupation by Irrep:
             Ag   B1g   B2g   B3g    Au   B1u   B2u   B3u
    DOCC [     3,    0,    1,    0,    0,    2,    1,    1 ]
    SOCC [     0,    0,    0,    1,    0,    0,    0,    0 ]
    NA   [     3,    0,    1,    1,    0,    2,    1,    1 ]
    NB   [     3,    0,    1,    0,    0,    2,    1,    1 ]

  @DF-UKS Final Energy:  -148.46673779292806

   => Energetics <=

    Nuclear Repulsion Energy =             48.6947453610983700
    One-Electron Energy =                -303.4987033230595443
    Two-Electron Energy =                 121.1140797355738528
    DFT Exchange-Correlation Energy =     -14.7768595665407023
    Empirical Dispersion Energy =           0.0000000000000000
    VV10 Nonlocal Energy =                  0.0000000000000000
    Total Energy =                       -148.4667377929280292

  UHF NO Occupations:
  HONO-2 :    1B2u 1.9998998
  HONO-1 :    2B1u 1.9998690
  HONO-0 :    1B3g 1.0000000
  LUNO+0 :    3B1u 0.0001310
  LUNO+1 :    2B2u 0.0001002
  LUNO+2 :    4 Ag 0.0000761
  LUNO+3 :    2B2g 0.0000274

Computation Completed

Properties will be evaluated at   0.000000,   0.000000,   0.000000 [a0]

Properties computed using the B3LYP density matrix

 Multipole Moments:

 ------------------------------------------------------------------------------------
     Multipole            Electronic (a.u.)      Nuclear  (a.u.)        Total (a.u.)
 ------------------------------------------------------------------------------------

 L = 1.  Multiply by 2.5417464519 to convert [e a0] to [Debye]
 Dipole X            :          0.0000000            0.0000000            0.0000000
 Dipole Y            :          0.0000000            0.0000000            0.0000000
 Dipole Z            :          0.0000000            0.0000000            0.0000000
 Magnitude           :                                                    0.0000000

 L = 2.  Multiply by 1.3450342976 to convert [e a0^2] to [Debye ang]
 Quadrupole XX       :         -9.4613122            0.0000000           -9.4613122
 Quadrupole XY       :          0.0000000            0.0000000            0.0000000
 Quadrupole XZ       :          0.0000000            0.0000000            0.0000000
 Quadrupole YY       :         -8.1411241            0.0000000           -8.1411241
 Quadrupole YZ       :          0.0000000            0.0000000            0.0000000
 Quadrupole ZZ       :        -18.6765097            6.9096451          -11.7668646
 Traceless XX        :          2.6316698           -2.3032150            0.3284548
 Traceless YY        :          3.9518579           -2.3032150            1.6486428
 Traceless ZZ        :         -6.5835277            4.6064301           -1.9770976

 ------------------------------------------------------------------------------------
  ==> Computing MBIS Charges <==

  Electron Count from Grid (Expected Number): 17.00000 (17.00000)
  Difference:  0.00000

  MBIS Charges: (a.u.)
   Center  Symbol  Z      Pop.       Charge
      1       O    8    8.500001   -0.500001
      2       O    8    8.500001   -0.500001

  MBIS Dipoles: [e a0]
   Center  Symbol  Z        X           Y           Z
      1       O    8    0.000000   -0.000000    0.412916
      2       O    8    0.000000    0.000000   -0.412916

  MBIS Quadrupoles: [e a0^2]
   Center  Symbol  Z      XX        XY        XZ        YY        YZ        ZZ
      1       O    8   -4.7307   -0.0000   -0.0000   -4.0706   -0.0000   -5.1248
      2       O    8   -4.7307   -0.0000    0.0000   -4.0706    0.0000   -5.1248

  MBIS Octupoles: [e a0^3]
   Center  Symbol  Z      XXX       XXY       XXZ       XYY       XYZ       XZZ       YYY       YYZ       YZZ       ZZZ
      1       O    8    0.0000   -0.0000    1.1839   -0.0000    0.0000   -0.0000    0.0000    0.8291    0.0000    0.5481
      2       O    8    0.0000   -0.0000   -1.1839    0.0000   -0.0000    0.0000    0.0000   -0.8291    0.0000   -0.5481

  MBIS Radial Moments:
   Center  Symbol  Z      [a0^2]      [a0^3]      [a0^4]
      1       O    8   13.926024   29.644306   76.254072
      2       O    8   13.926024   29.644306   76.254072

  MBIS Valence Widths: [a0]
   Center  Symbol  Z     Width
      1       O    8    0.407401
      2       O    8    0.407401

*** tstop() called on Mac.lan at Sun Aug 10 17:27:46 2025
Module time:
	user time   =       3.99 seconds =       0.07 minutes
	system time =       1.87 seconds =       0.03 minutes
	total time  =          0 seconds =       0.00 minutes
Total time:
	user time   =      18.98 seconds =       0.32 minutes
	system time =       4.10 seconds =       0.07 minutes
	total time  =          2 seconds =       0.03 minutes

    Psi4 stopped on: Sunday, 10 August 2025 05:27PM
    Psi4 wall time for execution: 0:00:02.23

*** Psi4 exiting successfully. Buy a developer a beer!
