                               Psi4 1.9.1 release

  ==> Input File <==

--------------------------------------------------------------------------
molecule {
-1 1
O           0.000000           0.000000           0.000000
H           0.000000           0.000000           0.772886
}

set {
basis              cc-pvtz
reference          uks
maxiter            500
DAMPING_PERCENTAGE 1
E_CONVERGENCE      1.0E-8
D_CONVERGENCE      1.0E-8
DIIS_MAX_VECS      400
MBIS_MAXITER       8000
guess              read
}

E, wfn = energy('b3lyp', restart_file='last_wfn', return_wfn=True)
properties('b3lyp','MBIS_CHARGES', wfn=wfn)
wfn.to_file('last_wfn')
--------------------------------------------------------------------------

    Molecular point group: c2v
  Charge       = -1
  Multiplicity = 1
  Basis Set: CC-PVTZ
    Blend: CC-PVTZ
  Basis Set: (CC-PVTZ AUX)
    Blend: CC-PVTZ-JKFIT
  @DF-UKS Final Energy:   -75.73525309718562
    Total Energy =                        -75.7352530971856197
 Dipole X            :          0.0000000            0.0000000            0.0000000
 Dipole Y            :          0.0000000            0.0000000            0.0000000
 Dipole Z            :         -0.1106282            0.6813893            0.5707611
 Magnitude           :                                                    0.5707611
    Molecular point group: c2v

    Geometry (in Angstrom), charge = -1, multiplicity = 1:

       Center              X                  Y                   Z               Mass
    ------------   -----------------  -----------------  -----------------  -----------------
         O            0.000000000000     0.000000000000    -0.045812255778    15.994914619570
         H            0.000000000000     0.000000000000     0.727073744222     1.007825032230

  Charge       = -1
  Multiplicity = 1
  Basis Set: CC-PVTZ
    Blend: CC-PVTZ
  Basis Set: (CC-PVTZ AUX)
    Blend: CC-PVTZ-JKFIT

    Orbital Energies [Eh]
    ---------------------

    Alpha Occupied:

       1A1   -18.634030     2A1    -0.575701     3A1    -0.028626
       1B2     0.121358     1B1     0.121358

    Alpha Virtual:

       4A1     0.328708     5A1     0.811881     6A1     0.892457
       2B2     0.940459     2B1     0.940459     3B2     1.107291
       3B1     1.107291     7A1     1.202241     8A1     1.891638
       1A2     1.891638     9A1     1.928677     4B1     2.256048
       4B2     2.256048    10A1     2.269194    11A1     3.031759
       2A2     3.707812    12A1     3.707813     5B1     3.835169
       5B2     3.835169     6B1     4.109457     6B2     4.109457
      13A1     4.289842     7B1     4.698205     7B2     4.698205
      14A1     4.982575     8B1     5.591865     8B2     5.591865
      15A1     5.776078     3A2     6.132613    16A1     6.132613
      17A1     6.676994     4A2     6.676994     9B1     6.778531
       9B2     6.778531    18A1     7.507082    19A1     7.870038
      10B1     7.945543    10B2     7.945543    20A1    12.830812

    Beta Occupied:

       1A1   -18.634030     2A1    -0.575701     3A1    -0.028626
       1B2     0.121358     1B1     0.121358

    Beta Virtual:

       4A1     0.328708     5A1     0.811881     6A1     0.892457
       2B2     0.940459     2B1     0.940459     3B2     1.107291
       3B1     1.107291     7A1     1.202241     8A1     1.891638
       1A2     1.891638     9A1     1.928677     4B1     2.256048
       4B2     2.256048    10A1     2.269194    11A1     3.031759
       2A2     3.707812    12A1     3.707813     5B1     3.835169
       5B2     3.835169     6B1     4.109457     6B2     4.109457
      13A1     4.289842     7B1     4.698205     7B2     4.698205
      14A1     4.982575     8B1     5.591865     8B2     5.591865
      15A1     5.776078     3A2     6.132613    16A1     6.132613
      17A1     6.676994     4A2     6.676994     9B1     6.778531
       9B2     6.778531    18A1     7.507082    19A1     7.870038
      10B1     7.945543    10B2     7.945543    20A1    12.830812

    Final Occupation by Irrep:
             A1    A2    B1    B2
    DOCC [     3,    0,    1,    1 ]
    SOCC [     0,    0,    0,    0 ]
    NA   [     3,    0,    1,    1 ]
    NB   [     3,    0,    1,    1 ]

  @DF-UKS Final Energy:   -75.73525315620788

   => Energetics <=

    Nuclear Repulsion Energy =              5.4774154084302218
    One-Electron Energy =                -119.0050032191496285
    Two-Electron Energy =                  45.3544981253939739
    DFT Exchange-Correlation Energy =      -7.5621634708824379
    Empirical Dispersion Energy =           0.0000000000000000
    VV10 Nonlocal Energy =                  0.0000000000000000
    Total Energy =                        -75.7352531562078752

  UHF NO Occupations:
  HONO-2 :    2 A1 2.0000000
  HONO-1 :    3 A1 2.0000000
  HONO-0 :    1 B1 2.0000000
  LUNO+0 :    4 A1 0.0000000
  LUNO+1 :    5 A1 0.0000000
  LUNO+2 :    6 A1 0.0000000
  LUNO+3 :    7 A1 0.0000000

Computation Completed

Properties will be evaluated at   0.000000,   0.000000,   0.000000 [a0]

Properties computed using the B3LYP density matrix

 Multipole Moments:

 ------------------------------------------------------------------------------------
     Multipole            Electronic (a.u.)      Nuclear  (a.u.)        Total (a.u.)
 ------------------------------------------------------------------------------------

 L = 1.  Multiply by 2.5417464519 to convert [e a0] to [Debye]
 Dipole X            :          0.0000000            0.0000000            0.0000000
 Dipole Y            :          0.0000000            0.0000000            0.0000000
 Dipole Z            :         -0.1106282            0.6813893            0.5707611
 Magnitude           :                                                    0.5707611

 L = 2.  Multiply by 1.3450342976 to convert [e a0^2] to [Debye ang]
 Quadrupole XX       :         -6.1230581            0.0000000           -6.1230581
 Quadrupole XY       :          0.0000000            0.0000000            0.0000000
 Quadrupole XZ       :          0.0000000            0.0000000            0.0000000
 Quadrupole YY       :         -6.1230581            0.0000000           -6.1230581
 Quadrupole YZ       :          0.0000000            0.0000000            0.0000000
 Quadrupole ZZ       :         -6.9339882            1.9477528           -4.9862354
 Traceless XX        :          0.2703100           -0.6492509           -0.3789409
 Traceless YY        :          0.2703100           -0.6492509           -0.3789409
 Traceless ZZ        :         -0.5406200            1.2985019            0.7578818

 ------------------------------------------------------------------------------------
  ==> Computing MBIS Charges <==

  Electron Count from Grid (Expected Number): 10.00000 (10.00000)
  Difference: -0.00000

  MBIS Charges: (a.u.)
   Center  Symbol  Z      Pop.       Charge
      1       O    8    9.411021   -1.411021
      2       H    1    0.588979    0.411021

  MBIS Dipoles: [e a0]
   Center  Symbol  Z        X           Y           Z
      1       O    8   -0.000000   -0.000000   -0.128197
      2       H    1    0.000000   -0.000000    0.012072

  MBIS Quadrupoles: [e a0^2]
   Center  Symbol  Z      XX        XY        XZ        YY        YZ        ZZ
      1       O    8   -5.8804    0.0000    0.0000   -5.8804   -0.0000   -5.5632
      2       H    1   -0.2427   -0.0000    0.0000   -0.2427   -0.0000   -0.2438

  MBIS Octupoles: [e a0^3]
   Center  Symbol  Z      XXX       XXY       XXZ       XYY       XYZ       XZZ       YYY       YYZ       YZZ       ZZZ
      1       O    8   -0.0000   -0.0000   -0.0751   -0.0000    0.0000    0.0000   -0.0000   -0.0751   -0.0000   -0.6849
      2       H    1   -0.0000   -0.0000    0.0020    0.0000   -0.0000    0.0000   -0.0000    0.0020   -0.0000   -0.0014

  MBIS Radial Moments:
   Center  Symbol  Z      [a0^2]      [a0^3]      [a0^4]
      1       O    8   17.323988   36.611515   91.113688
      2       H    1    0.729080    1.173998    2.255568

  MBIS Valence Widths: [a0]
   Center  Symbol  Z     Width
      1       O    8    0.433430
      2       H    1    0.320588

*** tstop() called on Mac.lan at Sun Aug 10 17:37:06 2025
Module time:
	user time   =       3.00 seconds =       0.05 minutes
	system time =       2.65 seconds =       0.04 minutes
	total time  =          1 seconds =       0.02 minutes
Total time:
	user time   =      10.72 seconds =       0.18 minutes
	system time =       5.20 seconds =       0.09 minutes
	total time  =          2 seconds =       0.03 minutes

    Psi4 stopped on: Sunday, 10 August 2025 05:37PM
    Psi4 wall time for execution: 0:00:01.56

*** Psi4 exiting successfully. Buy a developer a beer!
