                               Psi4 1.9.1 release

  ==> Input File <==

--------------------------------------------------------------------------
molecule {
-1 2
O           0.000000           0.000000           0.000000
C           0.000000           0.000000           0.427891
}

set {
basis              cc-pvtz
reference          uks
maxiter            500
DAMPING_PERCENTAGE 1
E_CONVERGENCE      1.0E-8
D_CONVERGENCE      1.0E-8
DIIS_MAX_VECS      400
MBIS_MAXITER       8000
guess              read
}

E, wfn = energy('b3lyp', restart_file='last_wfn', return_wfn=True)
properties('b3lyp','MBIS_CHARGES', wfn=wfn)
wfn.to_file('last_wfn')
--------------------------------------------------------------------------

    Molecular point group: c2v
  Charge       = -1
  Multiplicity = 2
  Basis Set: CC-PVTZ
    Blend: CC-PVTZ
  Basis Set: (CC-PVTZ AUX)
    Blend: CC-PVTZ-JKFIT
  @DF-UKS Final Energy:  -104.36134989250073
    Total Energy =                       -104.3613498925007264
 Dipole X            :          0.0000000            0.0000000            0.0000000
 Dipole Y            :          0.0000000            0.0000000            0.0000000
 Dipole Z            :         -1.2332845           -0.0008813           -1.2341658
 Magnitude           :                                                    1.2341658
    Molecular point group: c2v

    Geometry (in Angstrom), charge = -1, multiplicity = 2:

       Center              X                  Y                   Z               Mass
    ------------   -----------------  -----------------  -----------------  -----------------
         O            0.000000000000     0.000000000000    -0.183415169140    15.994914619570
         C            0.000000000000     0.000000000000     0.244475830860    12.000000000000

  Charge       = -1
  Multiplicity = 2
  Basis Set: CC-PVTZ
    Blend: CC-PVTZ
  Basis Set: (CC-PVTZ AUX)
    Blend: CC-PVTZ-JKFIT

    Orbital Energies [Eh]
    ---------------------

    Alpha Occupied:

       1A1   -19.799766     2A1   -11.019346     1B2    -0.955145
       1B1    -0.952661     3A1    -0.856118     4A1    -0.056402
       5A1     0.162466     2B1     0.266618

    Alpha Virtual:

       2B2     0.327077     6A1     0.342013     7A1     0.485591
       3B2     0.644025     3B1     0.647470     8A1     0.845984
       1A2     0.847311     9A1     0.856237     4B2     0.895121
       4B1     0.897657    10A1     1.170856    11A1     1.540937
       5B2     1.576169     5B1     1.580454     6B2     1.743482
       6B1     1.748846     2A2     1.896490    12A1     1.898997
      13A1     2.138037    14A1     2.380605     7B1     2.845400
       7B2     2.845438     8B2     2.886133     8B1     2.891355
       3A2     3.007551    15A1     3.008189    16A1     3.243677
       9B2     3.410194     9B1     3.414804     4A2     3.851326
      17A1     3.852211    18A1     4.162376    10B2     4.232336
      10B1     4.238574    19A1     4.848575    11B2     5.517372
      11B1     5.522539    12B2     5.885852    12B1     5.885855
       5A2     6.116863    20A1     6.117195    21A1     6.627751
      13B2     7.294219    13B1     7.297359     6A2     8.052297
      22A1     8.052516    23A1     8.171424    24A1     9.898332
      14B2    10.235211    14B1    10.237455    25A1    12.249322
      26A1    27.003393

    Beta Occupied:

       1A1   -19.799285     2A1   -11.020812     1B2    -0.955173
       1B1    -0.947049     3A1    -0.854893     4A1    -0.054442
       5A1     0.159451

    Beta Virtual:

       2B2     0.340138     6A1     0.360216     2B1     0.365323
       7A1     0.499234     3B2     0.642981     3B1     0.656509
       8A1     0.857388     1A2     0.865193     9A1     0.870474
       4B2     0.897355     4B1     0.915352    10A1     1.177038
      11A1     1.542754     5B2     1.576116     5B1     1.592933
       6B2     1.743209     6B1     1.756242     2A2     1.908185
      12A1     1.908488    13A1     2.138745    14A1     2.382168
       7B2     2.848664     7B1     2.848713     8B2     2.883980
       8B1     2.893451    15A1     3.009301     3A2     3.009324
      16A1     3.242130     9B2     3.407420     9B1     3.419391
       4A2     3.854583    17A1     3.854648    18A1     4.160107
      10B2     4.231226    10B1     4.243131    19A1     4.848588
      11B2     5.516126    11B1     5.524726    12B2     5.887406
      12B1     5.887411     5A2     6.119052    20A1     6.119098
      21A1     6.626000    13B2     7.292683    13B1     7.299316
      22A1     8.054404     6A2     8.054467    23A1     8.172111
      24A1     9.898014    14B2    10.234051    14B1    10.239302
      25A1    12.248610    26A1    27.003817

    Final Occupation by Irrep:
             A1    A2    B1    B2
    DOCC [     5,    0,    1,    1 ]
    SOCC [     0,    0,    1,    0 ]
    NA   [     5,    0,    2,    1 ]
    NB   [     5,    0,    1,    1 ]

  @DF-UKS Final Energy:  -104.36134989204403

   => Energetics <=

    Nuclear Repulsion Energy =             59.3620948142400735
    One-Electron Energy =                -251.6917960939559009
    Two-Electron Energy =                 100.6417629232657589
    DFT Exchange-Correlation Energy =     -12.6734115355939547
    Empirical Dispersion Energy =           0.0000000000000000
    VV10 Nonlocal Energy =                  0.0000000000000000
    Total Energy =                       -104.3613498920440321

  UHF NO Occupations:
  HONO-2 :    4 A1 1.9999262
  HONO-1 :    5 A1 1.9980552
  HONO-0 :    2 B1 1.0000000
  LUNO+0 :    6 A1 0.0019448
  LUNO+1 :    7 A1 0.0000738
  LUNO+2 :    3 B1 0.0000020
  LUNO+3 :    8 A1 0.0000009

Computation Completed

Properties will be evaluated at   0.000000,   0.000000,   0.000000 [a0]

Properties computed using the B3LYP density matrix

 Multipole Moments:

 ------------------------------------------------------------------------------------
     Multipole            Electronic (a.u.)      Nuclear  (a.u.)        Total (a.u.)
 ------------------------------------------------------------------------------------

 L = 1.  Multiply by 2.5417464519 to convert [e a0] to [Debye]
 Dipole X            :          0.0000000            0.0000000            0.0000000
 Dipole Y            :          0.0000000            0.0000000            0.0000000
 Dipole Z            :         -1.2332845           -0.0008813           -1.2341658
 Magnitude           :                                                    1.2341658

 L = 2.  Multiply by 1.3450342976 to convert [e a0^2] to [Debye ang]
 Quadrupole XX       :        -14.4758426            0.0000000          -14.4758426
 Quadrupole XY       :          0.0000000            0.0000000            0.0000000
 Quadrupole XZ       :          0.0000000            0.0000000            0.0000000
 Quadrupole YY       :         -8.8358983            0.0000000           -8.8358983
 Quadrupole YZ       :          0.0000000            0.0000000            0.0000000
 Quadrupole ZZ       :        -15.2342531            2.2416988          -12.9925543
 Traceless XX        :         -1.6271779           -0.7472329           -2.3744109
 Traceless YY        :          4.0127664           -0.7472329            3.2655335
 Traceless ZZ        :         -2.3855885            1.4944658           -0.8911226

 ------------------------------------------------------------------------------------
  ==> Computing MBIS Charges <==

  Electron Count from Grid (Expected Number): 15.00000 (15.00000)
  Difference:  0.00000

  MBIS Charges: (a.u.)
   Center  Symbol  Z      Pop.       Charge
      1       O    8    7.670827    0.329173
      2       C    6    7.329174   -1.329174

  MBIS Dipoles: [e a0]
   Center  Symbol  Z        X           Y           Z
      1       O    8    0.000000    0.000000   -0.156196
      2       C    6    0.000000    0.000000   -0.349809

  MBIS Quadrupoles: [e a0^2]
   Center  Symbol  Z      XX        XY        XZ        YY        YZ        ZZ
      1       O    8   -2.0231   -0.0000   -0.0000   -1.9420    0.0000   -2.4810
      2       C    6   -12.4527   -0.0000    0.0000   -6.8939    0.0000   -10.0524

  MBIS Octupoles: [e a0^3]
   Center  Symbol  Z      XXX       XXY       XXZ       XYY       XYZ       XZZ       YYY       YYZ       YZZ       ZZZ
      1       O    8    0.0000    0.0000   -0.0458   -0.0000   -0.0000    0.0000   -0.0000   -0.0239    0.0000    0.3317
      2       C    6    0.0000    0.0000   -3.0540    0.0000   -0.0000    0.0000    0.0000   -1.1624    0.0000    0.6470

  MBIS Radial Moments:
   Center  Symbol  Z      [a0^2]      [a0^3]      [a0^4]
      1       O    8    6.446213    9.201932   15.998397
      2       C    6   29.398990   98.272807   376.833957

  MBIS Valence Widths: [a0]
   Center  Symbol  Z     Width
      1       O    8    0.294157
      2       C    6    0.668267

*** tstop() called on Mac.lan at Sun Aug 10 17:42:49 2025
Module time:
	user time   =       3.85 seconds =       0.06 minutes
	system time =       3.50 seconds =       0.06 minutes
	total time  =          1 seconds =       0.02 minutes
Total time:
	user time   =      21.90 seconds =       0.37 minutes
	system time =       5.96 seconds =       0.10 minutes
	total time  =          3 seconds =       0.05 minutes

    Psi4 stopped on: Sunday, 10 August 2025 05:42PM
    Psi4 wall time for execution: 0:00:02.69

*** Psi4 exiting successfully. Buy a developer a beer!
