                               Psi4 1.9.1 release

  ==> Input File <==

--------------------------------------------------------------------------
molecule {
-1 1
N           0.000000           0.000000           0.000000
C           0.000000           0.000000           1.288797
}

set {
basis              cc-pvtz
reference          uks
maxiter            500
DAMPING_PERCENTAGE 1
E_CONVERGENCE      1.0E-8
D_CONVERGENCE      1.0E-8
DIIS_MAX_VECS      400
MBIS_MAXITER       8000
guess              read
}

E, wfn = energy('b3lyp', restart_file='last_wfn', return_wfn=True)
properties('b3lyp','MBIS_CHARGES', wfn=wfn)
wfn.to_file('last_wfn')
--------------------------------------------------------------------------

    Molecular point group: c2v
  Charge       = -1
  Multiplicity = 1
  Basis Set: CC-PVTZ
    Blend: CC-PVTZ
  Basis Set: (CC-PVTZ AUX)
    Blend: CC-PVTZ-JKFIT
  @DF-UKS Final Energy:   -92.86038463804294
    Total Energy =                        -92.8603846380429587
 Dipole X            :          0.0000000            0.0000000            0.0000000
 Dipole Y            :          0.0000000            0.0000000            0.0000000
 Dipole Z            :         -0.2035164            0.0017275           -0.2017889
 Magnitude           :                                                    0.2017889
    Molecular point group: c2v

    Geometry (in Angstrom), charge = -1, multiplicity = 1:

       Center              X                  Y                   Z               Mass
    ------------   -----------------  -----------------  -----------------  -----------------
         N            0.000000000000     0.000000000000    -0.594759065692    14.003074004430
         C            0.000000000000     0.000000000000     0.694037934308    12.000000000000

  Charge       = -1
  Multiplicity = 1
  Basis Set: CC-PVTZ
    Blend: CC-PVTZ
  Basis Set: (CC-PVTZ AUX)
    Blend: CC-PVTZ-JKFIT

    Orbital Energies [Eh]
    ---------------------

    Alpha Occupied:

       1A1   -14.039170     2A1    -9.921672     3A1    -0.560563
       4A1    -0.157213     1B2    -0.034205     1B1    -0.034205
       5A1    -0.022461

    Alpha Virtual:

       2B2     0.275266     2B1     0.275266     6A1     0.406676
       3B1     0.565384     3B2     0.565384     7A1     0.576280
       8A1     0.703413     4B2     0.777951     4B1     0.777951
       9A1     0.824405     1A2     0.932397    10A1     0.932397
       5B1     1.109895     5B2     1.109895    11A1     1.155650
       2A2     1.432233    12A1     1.432233    13A1     1.491360
       6B1     1.776898     6B2     1.776898    14A1     2.011620
       7B1     2.319159     7B2     2.319159    15A1     2.516240
       8B2     2.970640     8B1     2.970640    16A1     3.013047
       3A2     3.013047     9B1     3.061050     9B2     3.061050
      17A1     3.169924    10B2     3.264245    10B1     3.264245
       4A2     3.281826    18A1     3.281827    19A1     3.395826
      11B1     3.687589    11B2     3.687589    20A1     3.938965
      12B1     4.219949    12B2     4.219949     5A2     4.579324
      21A1     4.579325    22A1     4.830683     6A2     4.830685
      13B2     5.049023    13B1     5.049023    23A1     5.111878
      14B1     5.584505    14B2     5.584505    24A1     5.594550
      25A1     5.748669    26A1    10.738132

    Beta Occupied:

       1A1   -14.039170     2A1    -9.921672     3A1    -0.560563
       4A1    -0.157213     1B2    -0.034205     1B1    -0.034205
       5A1    -0.022461

    Beta Virtual:

       2B2     0.275266     2B1     0.275266     6A1     0.406676
       3B1     0.565384     3B2     0.565384     7A1     0.576280
       8A1     0.703413     4B2     0.777951     4B1     0.777951
       9A1     0.824405     1A2     0.932397    10A1     0.932397
       5B1     1.109895     5B2     1.109895    11A1     1.155650
       2A2     1.432233    12A1     1.432233    13A1     1.491360
       6B1     1.776898     6B2     1.776898    14A1     2.011620
       7B1     2.319159     7B2     2.319159    15A1     2.516240
       8B2     2.970640     8B1     2.970640    16A1     3.013047
       3A2     3.013047     9B1     3.061050     9B2     3.061050
      17A1     3.169924    10B2     3.264245    10B1     3.264245
       4A2     3.281826    18A1     3.281827    19A1     3.395826
      11B1     3.687589    11B2     3.687589    20A1     3.938965
      12B1     4.219949    12B2     4.219949     5A2     4.579324
      21A1     4.579325    22A1     4.830683     6A2     4.830685
      13B2     5.049023    13B1     5.049023    23A1     5.111878
      14B1     5.584505    14B2     5.584505    24A1     5.594550
      25A1     5.748669    26A1    10.738132

    Final Occupation by Irrep:
             A1    A2    B1    B2
    DOCC [     5,    0,    1,    1 ]
    SOCC [     0,    0,    0,    0 ]
    NA   [     5,    0,    1,    1 ]
    NB   [     5,    0,    1,    1 ]

  @DF-UKS Final Energy:   -92.86038463772337

   => Energetics <=

    Nuclear Repulsion Energy =             17.2451075290678055
    One-Electron Energy =                -163.4669621295776096
    Two-Electron Energy =                  63.3653379357697446
    DFT Exchange-Correlation Energy =     -10.0038679729833166
    Empirical Dispersion Energy =           0.0000000000000000
    VV10 Nonlocal Energy =                  0.0000000000000000
    Total Energy =                        -92.8603846377233708

  UHF NO Occupations:
  HONO-2 :    1 B2 2.0000000
  HONO-1 :    1 B1 2.0000000
  HONO-0 :    5 A1 2.0000000
  LUNO+0 :    6 A1 0.0000000
  LUNO+1 :    7 A1 0.0000000
  LUNO+2 :    8 A1 0.0000000
  LUNO+3 :    9 A1 0.0000000

Computation Completed

Properties will be evaluated at   0.000000,   0.000000,   0.000000 [a0]

Properties computed using the B3LYP density matrix

 Multipole Moments:

 ------------------------------------------------------------------------------------
     Multipole            Electronic (a.u.)      Nuclear  (a.u.)        Total (a.u.)
 ------------------------------------------------------------------------------------

 L = 1.  Multiply by 2.5417464519 to convert [e a0] to [Debye]
 Dipole X            :          0.0000000            0.0000000            0.0000000
 Dipole Y            :          0.0000000            0.0000000            0.0000000
 Dipole Z            :         -0.2035164            0.0017275           -0.2017889
 Magnitude           :                                                    0.2017889

 L = 2.  Multiply by 1.3450342976 to convert [e a0^2] to [Debye ang]
 Quadrupole XX       :        -10.5765449            0.0000000          -10.5765449
 Quadrupole XY       :          0.0000000            0.0000000            0.0000000
 Quadrupole XZ       :          0.0000000            0.0000000            0.0000000
 Quadrupole YY       :        -10.5765449            0.0000000          -10.5765449
 Quadrupole YZ       :          0.0000000            0.0000000            0.0000000
 Quadrupole ZZ       :        -33.2877442           19.1634064          -14.1243377
 Traceless XX        :          7.5703998           -6.3878021            1.1825976
 Traceless YY        :          7.5703998           -6.3878021            1.1825976
 Traceless ZZ        :        -15.1407995           12.7756043           -2.3651952

 ------------------------------------------------------------------------------------
  ==> Computing MBIS Charges <==

  Electron Count from Grid (Expected Number): 14.00000 (14.00000)
  Difference:  0.00000

  MBIS Charges: (a.u.)
   Center  Symbol  Z      Pop.       Charge
      1       N    7    7.530602   -0.530602
      2       C    6    6.469399   -0.469399

  MBIS Dipoles: [e a0]
   Center  Symbol  Z        X           Y           Z
      1       N    7    0.000000    0.000000    0.071669
      2       C    6   -0.000000   -0.000000   -0.254182

  MBIS Quadrupoles: [e a0^2]
   Center  Symbol  Z      XX        XY        XZ        YY        YZ        ZZ
      1       N    7   -4.9442    0.0000    0.0000   -4.9442    0.0000   -5.3967
      2       C    6   -5.6323    0.0000   -0.0000   -5.6323    0.0000   -6.4221

  MBIS Octupoles: [e a0^3]
   Center  Symbol  Z      XXX       XXY       XXZ       XYY       XYZ       XZZ       YYY       YYZ       YZZ       ZZZ
      1       N    7    0.0000   -0.0000    0.0513    0.0000    0.0000   -0.0000   -0.0000    0.0513   -0.0000    0.2412
      2       C    6   -0.0000   -0.0000   -0.2454   -0.0000   -0.0000   -0.0000    0.0000   -0.2454    0.0000   -0.6905

  MBIS Radial Moments:
   Center  Symbol  Z      [a0^2]      [a0^3]      [a0^4]
      1       N    7   15.285103   34.694655   93.780062
      2       C    6   17.686782   47.145188   147.970560

  MBIS Valence Widths: [a0]
   Center  Symbol  Z     Width
      1       N    7    0.468612
      2       C    6    0.560819

*** tstop() called on Mac.lan at Sun Aug 10 17:40:34 2025
Module time:
	user time   =       3.30 seconds =       0.05 minutes
	system time =       2.50 seconds =       0.04 minutes
	total time  =          0 seconds =       0.00 minutes
Total time:
	user time   =      16.68 seconds =       0.28 minutes
	system time =       4.66 seconds =       0.08 minutes
	total time  =          2 seconds =       0.03 minutes

    Psi4 stopped on: Sunday, 10 August 2025 05:40PM
    Psi4 wall time for execution: 0:00:02.08

*** Psi4 exiting successfully. Buy a developer a beer!
