                               Psi4 1.9.1 release

  ==> Input File <==

--------------------------------------------------------------------------
molecule {
-1 2
C           0.000000           0.000000           0.000000
C           0.000000           0.000000           1.501407
}

set {
basis              cc-pvtz
reference          uks
maxiter            500
DAMPING_PERCENTAGE 1
E_CONVERGENCE      1.0E-8
D_CONVERGENCE      1.0E-8
DIIS_MAX_VECS      400
MBIS_MAXITER       8000
guess              read
}

E, wfn = energy('b3lyp', restart_file='last_wfn', return_wfn=True)
properties('b3lyp','MBIS_CHARGES', wfn=wfn)
wfn.to_file('last_wfn')
--------------------------------------------------------------------------

    Molecular point group: d2h
  Charge       = -1
  Multiplicity = 2
  Basis Set: CC-PVTZ
    Blend: CC-PVTZ
  Basis Set: (CC-PVTZ AUX)
    Blend: CC-PVTZ-JKFIT
  @DF-UKS Final Energy:   -76.00632254593650
    Total Energy =                        -76.0063225459365128
 Dipole X            :          0.0000000            0.0000000            0.0000000
 Dipole Y            :          0.0000000            0.0000000            0.0000000
 Dipole Z            :          0.0000000            0.0000000            0.0000000
 Magnitude           :                                                    0.0000000
    Molecular point group: d2h

    Geometry (in Angstrom), charge = -1, multiplicity = 2:

       Center              X                  Y                   Z               Mass
    ------------   -----------------  -----------------  -----------------  -----------------
         C            0.000000000000     0.000000000000    -0.750703500000    12.000000000000
         C            0.000000000000     0.000000000000     0.750703500000    12.000000000000

  Charge       = -1
  Multiplicity = 2
  Basis Set: CC-PVTZ
    Blend: CC-PVTZ
  Basis Set: (CC-PVTZ AUX)
    Blend: CC-PVTZ-JKFIT

    Orbital Energies [Eh]
    ---------------------

    Alpha Occupied:

       1Ag    -9.973157     1B1u   -9.972798     2Ag    -0.419509
       2B1u   -0.166193     3Ag    -0.042747     1B3u    0.005741
       1B2u    0.005741

    Alpha Virtual:

       1B2g    0.230040     1B3g    0.230040     3B1u    0.378543
       4Ag     0.512070     2B3u    0.538334     2B2u    0.538334
       2B3g    0.606489     2B2g    0.606489     5Ag     0.609252
       4B1u    0.635167     1B1g    0.860341     6Ag     0.860341
       5B1u    0.860634     3B2u    0.960930     3B3u    0.960930
       1Au     1.097979     6B1u    1.097979     3B3g    1.370796
       3B2g    1.370796     7Ag     1.392272     7B1u    1.410078
       4B2u    2.209984     4B3u    2.209984     8Ag     2.291380
       4B3g    2.378852     4B2g    2.378852     2B1g    2.700588
       9Ag     2.700589     5B3u    2.717098     5B2u    2.717098
       8B1u    2.766534    10Ag     2.864068     6B2u    2.874327
       6B3u    2.874327     5B3g    3.078957     5B2g    3.078957
       3B1g    3.221181    11Ag     3.221183     9B1u    3.257882
       2Au     3.291587    10B1u    3.291589     6B2g    3.363776
       6B3g    3.363776     3Au     3.516488    11B1u    3.516490
       7B3u    3.528780     7B2u    3.528780    12B1u    3.889390
      12Ag     4.114444    13Ag     4.212664     7B2g    4.337371
       7B3g    4.337371    13B1u    8.258546

    Beta Occupied:

       1Ag    -9.965240     1B1u   -9.965001     2Ag    -0.388238
       2B1u   -0.109962     1B3u    0.013232     1B2u    0.013232

    Beta Virtual:

       3Ag     0.089255     1B2g    0.241402     1B3g    0.241402
       3B1u    0.388508     4Ag     0.539453     2B3u    0.542370
       2B2u    0.542370     2B3g    0.611174     2B2g    0.611174
       5Ag     0.625408     4B1u    0.689939     1B1g    0.861740
       6Ag     0.861740     5B1u    0.869830     3B2u    0.984956
       3B3u    0.984956     1Au     1.101831     6B1u    1.101831
       3B3g    1.391538     3B2g    1.391538     7Ag     1.423864
       7B1u    1.444279     4B2u    2.217482     4B3u    2.217482
       8Ag     2.327375     4B3g    2.383303     4B2g    2.383303
       2B1g    2.719633     9Ag     2.719633     5B3u    2.747072
       5B2u    2.747072     8B1u    2.800724     6B2u    2.875159
       6B3u    2.875159    10Ag     2.918189     5B3g    3.079536
       5B2g    3.079536     3B1g    3.225824    11Ag     3.225826
       2Au     3.292519     9B1u    3.292520    10B1u    3.299436
       6B2g    3.406369     6B3g    3.406369     3Au     3.537128
      11B1u    3.537129     7B3u    3.568675     7B2u    3.568675
      12B1u    3.938325    12Ag     4.145987    13Ag     4.243811
       7B2g    4.366390     7B3g    4.366390    13B1u    8.276471

    Final Occupation by Irrep:
             Ag   B1g   B2g   B3g    Au   B1u   B2u   B3u
    DOCC [     2,    0,    0,    0,    0,    2,    1,    1 ]
    SOCC [     1,    0,    0,    0,    0,    0,    0,    0 ]
    NA   [     3,    0,    0,    0,    0,    2,    1,    1 ]
    NB   [     2,    0,    0,    0,    0,    2,    1,    1 ]

  @DF-UKS Final Energy:   -76.00632254610946

   => Energetics <=

    Nuclear Repulsion Energy =             12.6883513824832317
    One-Electron Energy =                -130.1675327596048248
    Two-Electron Energy =                  50.1474192067777977
    DFT Exchange-Correlation Energy =      -8.6745603757656831
    Empirical Dispersion Energy =           0.0000000000000000
    VV10 Nonlocal Energy =                  0.0000000000000000
    Total Energy =                        -76.0063225461094731

  UHF NO Occupations:
  HONO-2 :    2 Ag 1.9996428
  HONO-1 :    2B1u 1.9978138
  HONO-0 :    3 Ag 1.0000000
  LUNO+0 :    3B1u 0.0021862
  LUNO+1 :    4 Ag 0.0003572
  LUNO+2 :    2B3u 0.0001106
  LUNO+3 :    2B2u 0.0001106

Computation Completed

Properties will be evaluated at   0.000000,   0.000000,   0.000000 [a0]

Properties computed using the B3LYP density matrix

 Multipole Moments:

 ------------------------------------------------------------------------------------
     Multipole            Electronic (a.u.)      Nuclear  (a.u.)        Total (a.u.)
 ------------------------------------------------------------------------------------

 L = 1.  Multiply by 2.5417464519 to convert [e a0] to [Debye]
 Dipole X            :          0.0000000            0.0000000            0.0000000
 Dipole Y            :          0.0000000            0.0000000            0.0000000
 Dipole Z            :          0.0000000            0.0000000            0.0000000
 Magnitude           :                                                    0.0000000

 L = 2.  Multiply by 1.3450342976 to convert [e a0^2] to [Debye ang]
 Quadrupole XX       :        -12.1617904            0.0000000          -12.1617904
 Quadrupole XY       :          0.0000000            0.0000000            0.0000000
 Quadrupole XZ       :          0.0000000            0.0000000            0.0000000
 Quadrupole YY       :        -12.1617904            0.0000000          -12.1617904
 Quadrupole YZ       :          0.0000000            0.0000000            0.0000000
 Quadrupole ZZ       :        -37.7954202           24.1499292          -13.6454910
 Traceless XX        :          8.5445433           -8.0499764            0.4945669
 Traceless YY        :          8.5445433           -8.0499764            0.4945669
 Traceless ZZ        :        -17.0890866           16.0999528           -0.9891338

 ------------------------------------------------------------------------------------
  ==> Computing MBIS Charges <==

  Electron Count from Grid (Expected Number): 13.00000 (13.00000)
  Difference:  0.00000

  MBIS Charges: (a.u.)
   Center  Symbol  Z      Pop.       Charge
      1       C    6    6.500000   -0.500000
      2       C    6    6.500000   -0.500000

  MBIS Dipoles: [e a0]
   Center  Symbol  Z        X           Y           Z
      1       C    6   -0.000000    0.000000   -0.113984
      2       C    6   -0.000000    0.000000    0.113984

  MBIS Quadrupoles: [e a0^2]
   Center  Symbol  Z      XX        XY        XZ        YY        YZ        ZZ
      1       C    6   -6.0809   -0.0000   -0.0000   -6.0809   -0.0000   -6.1399
      2       C    6   -6.0809   -0.0000    0.0000   -6.0809    0.0000   -6.1399

  MBIS Octupoles: [e a0^3]
   Center  Symbol  Z      XXX       XXY       XXZ       XYY       XYZ       XZZ       YYY       YYZ       YZZ       ZZZ
      1       C    6   -0.0000    0.0000   -0.4146   -0.0000    0.0000   -0.0000    0.0000   -0.4146    0.0000   -0.8537
      2       C    6   -0.0000    0.0000    0.4146   -0.0000   -0.0000   -0.0000    0.0000    0.4146    0.0000    0.8537

  MBIS Radial Moments:
   Center  Symbol  Z      [a0^2]      [a0^3]      [a0^4]
      1       C    6   18.301690   49.670093   159.294993
      2       C    6   18.301690   49.670093   159.294993

  MBIS Valence Widths: [a0]
   Center  Symbol  Z     Width
      1       C    6    0.568784
      2       C    6    0.568784

*** tstop() called on Mac.lan at Sun Aug 10 17:31:18 2025
Module time:
	user time   =      12.86 seconds =       0.21 minutes
	system time =       2.27 seconds =       0.04 minutes
	total time  =          1 seconds =       0.02 minutes
Total time:
	user time   =      85.29 seconds =       1.42 minutes
	system time =       5.28 seconds =       0.09 minutes
	total time  =          9 seconds =       0.15 minutes

    Psi4 stopped on: Sunday, 10 August 2025 05:31PM
    Psi4 wall time for execution: 0:00:09.13

*** Psi4 exiting successfully. Buy a developer a beer!
