                               Psi4 1.9.1 release

  ==> Input File <==

--------------------------------------------------------------------------
molecule {
-1 1
O           0.000000           0.000000           0.000000
H           0.000000           0.000000           1.388222
}

set {
basis              cc-pvtz
reference          uks
maxiter            500
DAMPING_PERCENTAGE 1
E_CONVERGENCE      1.0E-8
D_CONVERGENCE      1.0E-8
DIIS_MAX_VECS      400
MBIS_MAXITER       8000
guess              read
}

E, wfn = energy('b3lyp', restart_file='last_wfn', return_wfn=True)
properties('b3lyp','MBIS_CHARGES', wfn=wfn)
wfn.to_file('last_wfn')
--------------------------------------------------------------------------

    Molecular point group: c2v
  Charge       = -1
  Multiplicity = 1
  Basis Set: CC-PVTZ
    Blend: CC-PVTZ
  Basis Set: (CC-PVTZ AUX)
    Blend: CC-PVTZ-JKFIT
  @DF-UKS Final Energy:   -75.73149861518026
    Total Energy =                        -75.7314986151802572
 Dipole X            :          0.0000000            0.0000000            0.0000000
 Dipole Y            :          0.0000000            0.0000000            0.0000000
 Dipole Z            :         -1.3156921            1.2238799           -0.0918122
 Magnitude           :                                                    0.0918122
    Molecular point group: c2v

    Geometry (in Angstrom), charge = -1, multiplicity = 1:

       Center              X                  Y                   Z               Mass
    ------------   -----------------  -----------------  -----------------  -----------------
         O            0.000000000000     0.000000000000    -0.082285849842    15.994914619570
         H            0.000000000000     0.000000000000     1.305936150158     1.007825032230

  Charge       = -1
  Multiplicity = 1
  Basis Set: CC-PVTZ
    Blend: CC-PVTZ
  Basis Set: (CC-PVTZ AUX)
    Blend: CC-PVTZ-JKFIT

    Orbital Energies [Eh]
    ---------------------

    Alpha Occupied:

       1A1   -18.742304     2A1    -0.493767     3A1    -0.020858
       1B1     0.089263     1B2     0.089263

    Alpha Virtual:

       4A1     0.254573     5A1     0.542841     2B1     0.872466
       2B2     0.872466     6A1     0.897560     3B1     1.013441
       3B2     1.013441     7A1     1.180184     8A1     1.403588
       9A1     1.867678     1A2     1.867678     4B2     1.956133
       4B1     1.956133    10A1     2.356485    11A1     2.698481
       2A2     3.504923    12A1     3.504927    13A1     3.533510
       5B2     3.607532     5B1     3.607532     6B2     3.980494
       6B1     3.980494     7B1     4.078668     7B2     4.078668
      14A1     4.168105    15A1     5.008809    16A1     5.551448
       3A2     5.551449     8B2     5.556035     8B1     5.556035
       9B1     5.803703     9B2     5.803703    17A1     6.202553
      18A1     6.615880     4A2     6.615881    10B1     6.785834
      10B2     6.785834    19A1     7.370854    20A1     7.995044

    Beta Occupied:

       1A1   -18.742304     2A1    -0.493767     3A1    -0.020858
       1B1     0.089263     1B2     0.089263

    Beta Virtual:

       4A1     0.254573     5A1     0.542841     2B1     0.872466
       2B2     0.872466     6A1     0.897560     3B1     1.013441
       3B2     1.013441     7A1     1.180184     8A1     1.403588
       9A1     1.867678     1A2     1.867678     4B2     1.956133
       4B1     1.956133    10A1     2.356485    11A1     2.698481
       2A2     3.504923    12A1     3.504927    13A1     3.533510
       5B2     3.607532     5B1     3.607532     6B2     3.980494
       6B1     3.980494     7B1     4.078668     7B2     4.078668
      14A1     4.168105    15A1     5.008809    16A1     5.551448
       3A2     5.551449     8B2     5.556035     8B1     5.556035
       9B1     5.803703     9B2     5.803703    17A1     6.202553
      18A1     6.615880     4A2     6.615881    10B1     6.785834
      10B2     6.785834    19A1     7.370854    20A1     7.995044

    Final Occupation by Irrep:
             A1    A2    B1    B2
    DOCC [     3,    0,    1,    1 ]
    SOCC [     0,    0,    0,    0 ]
    NA   [     3,    0,    1,    1 ]
    NB   [     3,    0,    1,    1 ]

  @DF-UKS Final Energy:   -75.73149861531935

   => Energetics <=

    Nuclear Repulsion Energy =              3.0495249933800213
    One-Electron Energy =                -114.1250952490126167
    Two-Electron Energy =                  42.6882397666460278
    DFT Exchange-Correlation Energy =      -7.3441681263327689
    Empirical Dispersion Energy =           0.0000000000000000
    VV10 Nonlocal Energy =                  0.0000000000000000
    Total Energy =                        -75.7314986153193530

  UHF NO Occupations:
  HONO-2 :    3 A1 2.0000000
  HONO-1 :    1 B2 2.0000000
  HONO-0 :    1 B1 2.0000000
  LUNO+0 :    4 A1 0.0000000
  LUNO+1 :    5 A1 0.0000000
  LUNO+2 :    6 A1 0.0000000
  LUNO+3 :    7 A1 0.0000000

Computation Completed

Properties will be evaluated at   0.000000,   0.000000,   0.000000 [a0]

Properties computed using the B3LYP density matrix

 Multipole Moments:

 ------------------------------------------------------------------------------------
     Multipole            Electronic (a.u.)      Nuclear  (a.u.)        Total (a.u.)
 ------------------------------------------------------------------------------------

 L = 1.  Multiply by 2.5417464519 to convert [e a0] to [Debye]
 Dipole X            :          0.0000000            0.0000000            0.0000000
 Dipole Y            :          0.0000000            0.0000000            0.0000000
 Dipole Z            :         -1.3156921            1.2238799           -0.0918122
 Magnitude           :                                                    0.0918122

 L = 2.  Multiply by 1.3450342976 to convert [e a0^2] to [Debye ang]
 Quadrupole XX       :         -6.7173353            0.0000000           -6.7173353
 Quadrupole XY       :          0.0000000            0.0000000            0.0000000
 Quadrupole XZ       :          0.0000000            0.0000000            0.0000000
 Quadrupole YY       :         -6.7173353            0.0000000           -6.7173353
 Quadrupole YZ       :          0.0000000            0.0000000            0.0000000
 Quadrupole ZZ       :        -12.5906716            6.2837775           -6.3068941
 Traceless XX        :          1.9577788           -2.0945925           -0.1368137
 Traceless YY        :          1.9577788           -2.0945925           -0.1368137
 Traceless ZZ        :         -3.9155575            4.1891850            0.2736275

 ------------------------------------------------------------------------------------
  ==> Computing MBIS Charges <==

  Electron Count from Grid (Expected Number): 10.00000 (10.00000)
  Difference: -0.00000

  MBIS Charges: (a.u.)
   Center  Symbol  Z      Pop.       Charge
      1       O    8    8.935380   -0.935380
      2       H    1    1.064620   -0.064620

  MBIS Dipoles: [e a0]
   Center  Symbol  Z        X           Y           Z
      1       O    8   -0.000000   -0.000000   -0.096557
      2       H    1    0.000000   -0.000000    0.018768

  MBIS Quadrupoles: [e a0^2]
   Center  Symbol  Z      XX        XY        XZ        YY        YZ        ZZ
      1       O    8   -5.5372    0.0000    0.0000   -5.5372    0.0000   -4.8652
      2       H    1   -1.1802    0.0000    0.0000   -1.1802   -0.0000   -1.1481

  MBIS Octupoles: [e a0^3]
   Center  Symbol  Z      XXX       XXY       XXZ       XYY       XYZ       XZZ       YYY       YYZ       YZZ       ZZZ
      1       O    8   -0.0000   -0.0000   -0.2029   -0.0000    0.0000   -0.0000   -0.0000   -0.2029    0.0000   -0.9831
      2       H    1    0.0000    0.0000    0.0142    0.0000    0.0000   -0.0000    0.0000    0.0142   -0.0000    0.0157

  MBIS Radial Moments:
   Center  Symbol  Z      [a0^2]      [a0^3]      [a0^4]
      1       O    8   15.939586   33.536967   83.761981
      2       H    1    3.508467    9.109728   27.811296

  MBIS Valence Widths: [a0]
   Center  Symbol  Z     Width
      1       O    8    0.428962
      2       H    1    0.523258

*** tstop() called on Mac.lan at Sun Aug 10 17:38:35 2025
Module time:
	user time   =       2.93 seconds =       0.05 minutes
	system time =       1.83 seconds =       0.03 minutes
	total time  =          1 seconds =       0.02 minutes
Total time:
	user time   =      13.22 seconds =       0.22 minutes
	system time =       3.83 seconds =       0.06 minutes
	total time  =          2 seconds =       0.03 minutes

    Psi4 stopped on: Sunday, 10 August 2025 05:38PM
    Psi4 wall time for execution: 0:00:01.66

*** Psi4 exiting successfully. Buy a developer a beer!
