                               Psi4 1.9.1 release

  ==> Input File <==

--------------------------------------------------------------------------
molecule {
-1 2
O           0.000000           0.000000           0.000000
C           0.000000           0.000000           0.456584
}

set {
basis              cc-pvtz
reference          uks
maxiter            500
DAMPING_PERCENTAGE 1
E_CONVERGENCE      1.0E-8
D_CONVERGENCE      1.0E-8
DIIS_MAX_VECS      400
MBIS_MAXITER       8000
guess              read
}

E, wfn = energy('b3lyp', restart_file='last_wfn', return_wfn=True)
properties('b3lyp','MBIS_CHARGES', wfn=wfn)
wfn.to_file('last_wfn')
--------------------------------------------------------------------------

    Molecular point group: c2v
  Charge       = -1
  Multiplicity = 2
  Basis Set: CC-PVTZ
    Blend: CC-PVTZ
  Basis Set: (CC-PVTZ AUX)
    Blend: CC-PVTZ-JKFIT
  @DF-UKS Final Energy:  -105.83528520964344
    Total Energy =                       -105.8352852096434447
 Dipole X            :          0.0000000            0.0000000            0.0000000
 Dipole Y            :          0.0000000            0.0000000            0.0000000
 Dipole Z            :         -1.4653168           -0.0009404           -1.4662572
 Magnitude           :                                                    1.4662572
    Molecular point group: c2v

    Geometry (in Angstrom), charge = -1, multiplicity = 2:

       Center              X                  Y                   Z               Mass
    ------------   -----------------  -----------------  -----------------  -----------------
         O            0.000000000000     0.000000000000    -0.195714402936    15.994914619570
         C            0.000000000000     0.000000000000     0.260869597064    12.000000000000

  Charge       = -1
  Multiplicity = 2
  Basis Set: CC-PVTZ
    Blend: CC-PVTZ
  Basis Set: (CC-PVTZ AUX)
    Blend: CC-PVTZ-JKFIT

    Orbital Energies [Eh]
    ---------------------

    Alpha Occupied:

       1A1   -19.518169     2A1   -10.721396     1B2    -0.826910
       1B1    -0.824482     3A1    -0.813564     4A1    -0.035773
       5A1     0.070963     2B1     0.279982

    Alpha Virtual:

       2B2     0.340629     6A1     0.352580     7A1     0.499378
       3B2     0.647388     3B1     0.652264     8A1     0.840134
       1A2     0.868160     9A1     0.871521     4B2     0.912841
       4B1     0.915448    10A1     1.171613     5B2     1.565343
       5B1     1.569761    11A1     1.581623     6B2     1.769221
       6B1     1.774902     2A2     1.921368    12A1     1.923576
      13A1     2.137800    14A1     2.386693     7B1     2.877792
       7B2     2.877827     8B2     2.889234     8B1     2.894247
       3A2     3.049726    15A1     3.050370    16A1     3.257936
       9B2     3.414046     9B1     3.419201     4A2     3.821796
      17A1     3.822501    18A1     4.037479    10B2     4.292012
      10B1     4.298107    19A1     4.862730    11B2     5.430505
      11B1     5.435460    12B1     5.866977    12B2     5.866984
       5A2     6.196613    20A1     6.196979    21A1     6.648826
      13B2     7.287576    13B1     7.290906     6A2     7.934785
      22A1     7.935011    23A1     8.159289    24A1     9.714161
      14B2     9.943579    14B1     9.945702    25A1    11.610391
      26A1    25.227335

    Beta Occupied:

       1A1   -19.516446     2A1   -10.721835     1B2    -0.826295
       1B1    -0.817681     3A1    -0.811158     4A1    -0.032017
       5A1     0.071225

    Beta Virtual:

       2B2     0.353729     6A1     0.369933     2B1     0.379042
       7A1     0.514094     3B2     0.644643     3B1     0.657488
       8A1     0.848749     1A2     0.885676     9A1     0.887526
       4B2     0.914932     4B1     0.932566    10A1     1.178174
       5B2     1.565481     5B1     1.582414    11A1     1.583436
       6B2     1.768135     6B1     1.781120     2A2     1.932391
      12A1     1.932622    13A1     2.140103    14A1     2.388251
       7B2     2.879959     7B1     2.880470     8B2     2.888627
       8B1     2.897250    15A1     3.051431     3A2     3.051488
      16A1     3.257673     9B2     3.411717     9B1     3.423697
       4A2     3.824361    17A1     3.824362    18A1     4.036581
      10B2     4.291274    10B1     4.303109    19A1     4.863539
      11B2     5.430294    11B1     5.439076    12B2     5.868646
      12B1     5.868651     5A2     6.199879    20A1     6.199917
      21A1     6.649429    13B2     7.287224    13B1     7.293844
      22A1     7.937304     6A2     7.937326    23A1     8.161325
      24A1     9.715323    14B2     9.943671    14B1     9.949100
      25A1    11.611595    26A1    25.228507

    Final Occupation by Irrep:
             A1    A2    B1    B2
    DOCC [     5,    0,    1,    1 ]
    SOCC [     0,    0,    1,    0 ]
    NA   [     5,    0,    2,    1 ]
    NB   [     5,    0,    1,    1 ]

  @DF-UKS Final Energy:  -105.83528520937543

   => Energetics <=

    Nuclear Repulsion Energy =             55.6316167718536079
    One-Electron Energy =                -248.8310390658573112
    Two-Electron Energy =                 100.0170426099072643
    DFT Exchange-Correlation Energy =     -12.6529055252789835
    Empirical Dispersion Energy =           0.0000000000000000
    VV10 Nonlocal Energy =                  0.0000000000000000
    Total Energy =                       -105.8352852093754279

  UHF NO Occupations:
  HONO-2 :    1 B1 1.9999964
  HONO-1 :    5 A1 1.9991475
  HONO-0 :    2 B1 1.0000000
  LUNO+0 :    6 A1 0.0008525
  LUNO+1 :    3 B1 0.0000036
  LUNO+2 :    7 A1 0.0000032
  LUNO+3 :    8 A1 0.0000015

Computation Completed

Properties will be evaluated at   0.000000,   0.000000,   0.000000 [a0]

Properties computed using the B3LYP density matrix

 Multipole Moments:

 ------------------------------------------------------------------------------------
     Multipole            Electronic (a.u.)      Nuclear  (a.u.)        Total (a.u.)
 ------------------------------------------------------------------------------------

 L = 1.  Multiply by 2.5417464519 to convert [e a0] to [Debye]
 Dipole X            :          0.0000000            0.0000000            0.0000000
 Dipole Y            :          0.0000000            0.0000000            0.0000000
 Dipole Z            :         -1.4653168           -0.0009404           -1.4662572
 Magnitude           :                                                    1.4662572

 L = 2.  Multiply by 1.3450342976 to convert [e a0^2] to [Debye ang]
 Quadrupole XX       :        -14.4224368            0.0000000          -14.4224368
 Quadrupole XY       :          0.0000000            0.0000000            0.0000000
 Quadrupole XZ       :          0.0000000            0.0000000            0.0000000
 Quadrupole YY       :         -8.7877186            0.0000000           -8.7877186
 Quadrupole YZ       :          0.0000000            0.0000000            0.0000000
 Quadrupole ZZ       :        -15.0218979            2.5524211          -12.4694768
 Traceless XX        :         -1.6784190           -0.8508070           -2.5292261
 Traceless YY        :          3.9562992           -0.8508070            3.1054922
 Traceless ZZ        :         -2.2778802            1.7016141           -0.5762661

 ------------------------------------------------------------------------------------
  ==> Computing MBIS Charges <==

  Electron Count from Grid (Expected Number): 15.00000 (15.00000)
  Difference:  0.00000

  MBIS Charges: (a.u.)
   Center  Symbol  Z      Pop.       Charge
      1       O    8    7.649665    0.350335
      2       C    6    7.350337   -1.350337

  MBIS Dipoles: [e a0]
   Center  Symbol  Z        X           Y           Z
      1       O    8   -0.000000   -0.000000   -0.152402
      2       C    6    0.000000    0.000000   -0.518606

  MBIS Quadrupoles: [e a0^2]
   Center  Symbol  Z      XX        XY        XZ        YY        YZ        ZZ
      1       O    8   -2.0323   -0.0000   -0.0000   -1.9538   -0.0000   -2.4447
      2       C    6   -12.3901   -0.0000    0.0000   -6.8339    0.0000   -9.3460

  MBIS Octupoles: [e a0^3]
   Center  Symbol  Z      XXX       XXY       XXZ       XYY       XYZ       XZZ       YYY       YYZ       YZZ       ZZZ
      1       O    8    0.0000    0.0000   -0.0598    0.0000   -0.0000    0.0000   -0.0000   -0.0351    0.0000    0.2567
      2       C    6    0.0000    0.0000   -3.5547    0.0000   -0.0000    0.0000    0.0000   -1.5404    0.0000   -1.3397

  MBIS Radial Moments:
   Center  Symbol  Z      [a0^2]      [a0^3]      [a0^4]
      1       O    8    6.430858    9.133024   15.737721
      2       C    6   28.569949   94.539477   360.634590

  MBIS Valence Widths: [a0]
   Center  Symbol  Z     Width
      1       O    8    0.294792
      2       C    6    0.657239

*** tstop() called on Mac.lan at Sun Aug 10 17:42:45 2025
Module time:
	user time   =       6.02 seconds =       0.10 minutes
	system time =       3.29 seconds =       0.05 minutes
	total time  =          0 seconds =       0.00 minutes
Total time:
	user time   =      21.58 seconds =       0.36 minutes
	system time =       5.29 seconds =       0.09 minutes
	total time  =          2 seconds =       0.03 minutes

    Psi4 stopped on: Sunday, 10 August 2025 05:42PM
    Psi4 wall time for execution: 0:00:02.62

*** Psi4 exiting successfully. Buy a developer a beer!
