                               Psi4 1.9.1 release

  ==> Input File <==

--------------------------------------------------------------------------
molecule {
-1 3
C           0.000000           0.000000           0.000000
H           0.000000           0.000000           1.402717
}

set {
basis              cc-pvtz
reference          uks
maxiter            500
DAMPING_PERCENTAGE 1
E_CONVERGENCE      1.0E-8
D_CONVERGENCE      1.0E-8
DIIS_MAX_VECS      400
MBIS_MAXITER       8000
guess              read
}

E, wfn = energy('b3lyp', restart_file='last_wfn', return_wfn=True)
properties('b3lyp','MBIS_CHARGES', wfn=wfn)
wfn.to_file('last_wfn')
--------------------------------------------------------------------------

    Molecular point group: c2v
  Charge       = -1
  Multiplicity = 3
  Basis Set: CC-PVTZ
    Blend: CC-PVTZ
  Basis Set: (CC-PVTZ AUX)
    Blend: CC-PVTZ-JKFIT
  @DF-UKS Final Energy:   -38.51247143823884
    Total Energy =                        -38.5124714382388404
 Dipole X            :          0.0000000            0.0000000            0.0000000
 Dipole Y            :          0.0000000            0.0000000            0.0000000
 Dipole Z            :         -1.2774956            1.2131200           -0.0643756
 Magnitude           :                                                    0.0643756
    Molecular point group: c2v

    Geometry (in Angstrom), charge = -1, multiplicity = 3:

       Center              X                  Y                   Z               Mass
    ------------   -----------------  -----------------  -----------------  -----------------
         C            0.000000000000     0.000000000000    -0.108680221500    12.000000000000
         H            0.000000000000     0.000000000000     1.294036778500     1.007825032230

  Charge       = -1
  Multiplicity = 3
  Basis Set: CC-PVTZ
    Blend: CC-PVTZ
  Basis Set: (CC-PVTZ AUX)
    Blend: CC-PVTZ-JKFIT

    Orbital Energies [Eh]
    ---------------------

    Alpha Occupied:

       1A1    -9.912397     2A1    -0.275580     3A1     0.001212
       1B2     0.074233     1B1     0.074233

    Alpha Virtual:

       4A1     0.273664     5A1     0.525443     2B1     0.564773
       2B2     0.564773     6A1     0.594169     7A1     0.720571
       3B2     0.842326     3B1     0.842326     8A1     0.956548
       1A2     0.956548     9A1     1.179405     4B2     1.243570
       4B1     1.243570    10A1     1.486498     5B1     2.252632
       5B2     2.252632    11A1     2.450453    12A1     2.735256
       6B2     2.885767     6B1     2.885767     2A2     2.906558
      13A1     2.906558     7B1     2.979409     7B2     2.979409
      14A1     3.011550     3A2     3.237736    15A1     3.237736
       8B2     3.353228     8B1     3.353228    16A1     3.440921
       4A2     3.653317    17A1     3.653322     9B2     3.994906
       9B1     3.994906    18A1     4.064705    10B1     4.422815
      10B2     4.422815    19A1     4.581862    20A1     6.347595

    Beta Occupied:

       1A1    -9.887992     2A1    -0.195619     3A1     0.026912

    Beta Virtual:

       1B2     0.234114     1B1     0.234114     4A1     0.287056
       5A1     0.534543     6A1     0.611908     2B1     0.636021
       2B2     0.636021     7A1     0.766236     3B2     0.864093
       3B1     0.864093     8A1     1.033010     1A2     1.033010
       9A1     1.202312     4B2     1.268651     4B1     1.268651
      10A1     1.496364     5B1     2.331546     5B2     2.331546
      11A1     2.471834    12A1     2.742564     6B2     2.923051
       6B1     2.923051     2A2     2.960196    13A1     2.960196
      14A1     3.044105     7B1     3.075610     7B2     3.075610
       3A2     3.356887    15A1     3.356888     8B2     3.414450
       8B1     3.414450    16A1     3.478738     4A2     3.663760
      17A1     3.663765     9B2     3.991483     9B1     3.991483
      18A1     4.087720    10B1     4.436030    10B2     4.436030
      19A1     4.584149    20A1     6.373060

    Final Occupation by Irrep:
             A1    A2    B1    B2
    DOCC [     3,    0,    0,    0 ]
    SOCC [     0,    0,    1,    1 ]
    NA   [     3,    0,    1,    1 ]
    NB   [     3,    0,    0,    0 ]

  @DF-UKS Final Energy:   -38.51247143857344

   => Energetics <=

    Nuclear Repulsion Energy =              2.2635095062083086
    One-Electron Energy =                 -58.0607772351449469
    Two-Electron Energy =                  21.9938680290869826
    DFT Exchange-Correlation Energy =      -4.7090717387237779
    Empirical Dispersion Energy =           0.0000000000000000
    VV10 Nonlocal Energy =                  0.0000000000000000
    Total Energy =                        -38.5124714385734350

  UHF NO Occupations:
  HONO-2 :    3 A1 1.9972345
  HONO-1 :    1 B2 1.0000000
  HONO-0 :    1 B1 1.0000000
  LUNO+0 :    4 A1 0.0027655
  LUNO+1 :    5 A1 0.0007627
  LUNO+2 :    6 A1 0.0000011
  LUNO+3 :    7 A1 0.0000000

Computation Completed

Properties will be evaluated at   0.000000,   0.000000,   0.000000 [a0]

Properties computed using the B3LYP density matrix

 Multipole Moments:

 ------------------------------------------------------------------------------------
     Multipole            Electronic (a.u.)      Nuclear  (a.u.)        Total (a.u.)
 ------------------------------------------------------------------------------------

 L = 1.  Multiply by 2.5417464519 to convert [e a0] to [Debye]
 Dipole X            :          0.0000000            0.0000000            0.0000000
 Dipole Y            :          0.0000000            0.0000000            0.0000000
 Dipole Z            :         -1.2774956            1.2131200           -0.0643756
 Magnitude           :                                                    0.0643756

 L = 2.  Multiply by 1.3450342976 to convert [e a0^2] to [Debye ang]
 Quadrupole XX       :         -8.1721920            0.0000000           -8.1721920
 Quadrupole XY       :          0.0000000            0.0000000            0.0000000
 Quadrupole XZ       :          0.0000000            0.0000000            0.0000000
 Quadrupole YY       :         -8.1721920            0.0000000           -8.1721920
 Quadrupole YZ       :          0.0000000            0.0000000            0.0000000
 Quadrupole ZZ       :        -15.8764975            6.2329349           -9.6435626
 Traceless XX        :          2.5681018           -2.0776450            0.4904569
 Traceless YY        :          2.5681018           -2.0776450            0.4904569
 Traceless ZZ        :         -5.1362037            4.1552899           -0.9809138

 ------------------------------------------------------------------------------------
  ==> Computing MBIS Charges <==

  Electron Count from Grid (Expected Number):  8.00000 ( 8.00000)
  Difference:  0.00000

  MBIS Charges: (a.u.)
   Center  Symbol  Z      Pop.       Charge
      1       C    6    6.824012   -0.824012
      2       H    1    1.175988   -0.175988

  MBIS Dipoles: [e a0]
   Center  Symbol  Z        X           Y           Z
      1       C    6   -0.000000   -0.000000    0.213721
      2       H    1    0.000000   -0.000000   -0.016973

  MBIS Quadrupoles: [e a0^2]
   Center  Symbol  Z      XX        XY        XZ        YY        YZ        ZZ
      1       C    6   -6.9464    0.0000    0.0000   -6.9464    0.0000   -7.0846
      2       H    1   -1.2258    0.0000    0.0000   -1.2258    0.0000   -1.3010

  MBIS Octupoles: [e a0^3]
   Center  Symbol  Z      XXX       XXY       XXZ       XYY       XYZ       XZZ       YYY       YYZ       YZZ       ZZZ
      1       C    6   -0.0000   -0.0000    0.1932   -0.0000   -0.0000   -0.0000   -0.0000    0.1932   -0.0000   -0.6706
      2       H    1   -0.0000    0.0000   -0.1103    0.0000   -0.0000    0.0000    0.0000   -0.1103    0.0000   -0.2279

  MBIS Radial Moments:
   Center  Symbol  Z      [a0^2]      [a0^3]      [a0^4]
      1       C    6   20.977497   59.217697   197.452635
      2       H    1    3.752516    9.713477   29.782647

  MBIS Valence Widths: [a0]
   Center  Symbol  Z     Width
      1       C    6    0.589807
      2       H    1    0.512964

*** tstop() called on Mac.lan at Sun Aug 10 17:36:10 2025
Module time:
	user time   =       2.68 seconds =       0.04 minutes
	system time =       1.77 seconds =       0.03 minutes
	total time  =          0 seconds =       0.00 minutes
Total time:
	user time   =      12.38 seconds =       0.21 minutes
	system time =       4.19 seconds =       0.07 minutes
	total time  =          1 seconds =       0.02 minutes

    Psi4 stopped on: Sunday, 10 August 2025 05:36PM
    Psi4 wall time for execution: 0:00:01.61

*** Psi4 exiting successfully. Buy a developer a beer!
