                               Psi4 1.9.1 release

  ==> Input File <==

--------------------------------------------------------------------------
molecule {
-1 3
C           0.000000           0.000000           0.000000
H           0.000000           0.000000           1.186553
}

set {
basis              cc-pvtz
reference          uks
maxiter            500
DAMPING_PERCENTAGE 1
E_CONVERGENCE      1.0E-8
D_CONVERGENCE      1.0E-8
DIIS_MAX_VECS      400
MBIS_MAXITER       8000
guess              read
}

E, wfn = energy('b3lyp', restart_file='last_wfn', return_wfn=True)
properties('b3lyp','MBIS_CHARGES', wfn=wfn)
wfn.to_file('last_wfn')
--------------------------------------------------------------------------

    Molecular point group: c2v
  Charge       = -1
  Multiplicity = 3
  Basis Set: CC-PVTZ
    Blend: CC-PVTZ
  Basis Set: (CC-PVTZ AUX)
    Blend: CC-PVTZ-JKFIT
  @DF-UKS Final Energy:   -38.52675661519669
    Total Energy =                        -38.5267566151966960
 Dipole X            :          0.0000000            0.0000000            0.0000000
 Dipole Y            :          0.0000000            0.0000000            0.0000000
 Dipole Z            :         -0.6941595            1.0261736            0.3320141
 Magnitude           :                                                    0.3320141
    Molecular point group: c2v

    Geometry (in Angstrom), charge = -1, multiplicity = 3:

       Center              X                  Y                   Z               Mass
    ------------   -----------------  -----------------  -----------------  -----------------
         C            0.000000000000     0.000000000000    -0.091932187933    12.000000000000
         H            0.000000000000     0.000000000000     1.094620812067     1.007825032230

  Charge       = -1
  Multiplicity = 3
  Basis Set: CC-PVTZ
    Blend: CC-PVTZ
  Basis Set: (CC-PVTZ AUX)
    Blend: CC-PVTZ-JKFIT

    Orbital Energies [Eh]
    ---------------------

    Alpha Occupied:

       1A1    -9.883246     2A1    -0.297127     3A1     0.008022
       1B1     0.084993     1B2     0.084993

    Alpha Virtual:

       4A1     0.291592     5A1     0.540442     2B1     0.573159
       2B2     0.573159     6A1     0.638002     7A1     0.707273
       3B2     0.868525     3B1     0.868525     8A1     0.964119
       1A2     0.964119     9A1     1.237554     4B2     1.304343
       4B1     1.304343    10A1     1.610527     5B2     2.283873
       5B1     2.283873    11A1     2.421228    12A1     2.575178
       2A2     2.872626    13A1     2.872626     6B1     2.945315
       6B2     2.945315     7B1     2.991684     7B2     2.991684
      14A1     3.197962     3A2     3.260623    15A1     3.260623
       8B1     3.400856     8B2     3.400856    16A1     3.484946
      17A1     3.819562     4A2     3.819562     9B2     4.086028
       9B1     4.086028    18A1     4.587513    10B1     4.852446
      10B2     4.852446    19A1     4.919470    20A1     7.778433

    Beta Occupied:

       1A1    -9.859780     2A1    -0.225378     3A1     0.041568

    Beta Virtual:

       1B1     0.241907     1B2     0.241907     4A1     0.299771
       5A1     0.556117     2B1     0.644253     2B2     0.644253
       6A1     0.660702     7A1     0.742842     3B2     0.895808
       3B1     0.895808     1A2     1.040603     8A1     1.040603
       9A1     1.261274     4B2     1.328560     4B1     1.328560
      10A1     1.628607     5B2     2.363288     5B1     2.363288
      11A1     2.438841    12A1     2.601648    13A1     2.921772
       2A2     2.921772     6B1     2.984491     6B2     2.984491
       7B1     3.087404     7B2     3.087404    14A1     3.231994
      15A1     3.379271     3A2     3.379272     8B1     3.452103
       8B2     3.452103    16A1     3.512002     4A2     3.837729
      17A1     3.837729     9B2     4.085915     9B1     4.085915
      18A1     4.602911    10B1     4.874290    10B2     4.874290
      19A1     4.928052    20A1     7.807445

    Final Occupation by Irrep:
             A1    A2    B1    B2
    DOCC [     3,    0,    0,    0 ]
    SOCC [     0,    0,    1,    1 ]
    NA   [     3,    0,    1,    1 ]
    NB   [     3,    0,    0,    0 ]

  @DF-UKS Final Energy:   -38.52675661538901

   => Energetics <=

    Nuclear Repulsion Energy =              2.6758714225323272
    One-Electron Energy =                 -58.9334972528049832
    Two-Electron Energy =                  22.4826669986554712
    DFT Exchange-Correlation Energy =      -4.7517977837718304
    Empirical Dispersion Energy =           0.0000000000000000
    VV10 Nonlocal Energy =                  0.0000000000000000
    Total Energy =                        -38.5267566153890115

  UHF NO Occupations:
  HONO-2 :    3 A1 1.9975892
  HONO-1 :    1 B2 1.0000000
  HONO-0 :    1 B1 1.0000000
  LUNO+0 :    4 A1 0.0024108
  LUNO+1 :    5 A1 0.0004484
  LUNO+2 :    6 A1 0.0000011
  LUNO+3 :    7 A1 0.0000000

Computation Completed

Properties will be evaluated at   0.000000,   0.000000,   0.000000 [a0]

Properties computed using the B3LYP density matrix

 Multipole Moments:

 ------------------------------------------------------------------------------------
     Multipole            Electronic (a.u.)      Nuclear  (a.u.)        Total (a.u.)
 ------------------------------------------------------------------------------------

 L = 1.  Multiply by 2.5417464519 to convert [e a0] to [Debye]
 Dipole X            :          0.0000000            0.0000000            0.0000000
 Dipole Y            :          0.0000000            0.0000000            0.0000000
 Dipole Z            :         -0.6941595            1.0261736            0.3320141
 Magnitude           :                                                    0.3320141

 L = 2.  Multiply by 1.3450342976 to convert [e a0^2] to [Debye ang]
 Quadrupole XX       :         -8.0390506            0.0000000           -8.0390506
 Quadrupole XY       :          0.0000000            0.0000000            0.0000000
 Quadrupole XZ       :          0.0000000            0.0000000            0.0000000
 Quadrupole YY       :         -8.0390506            0.0000000           -8.0390506
 Quadrupole YZ       :          0.0000000            0.0000000            0.0000000
 Quadrupole ZZ       :        -13.2567280            4.4599167           -8.7968113
 Traceless XX        :          1.7392258           -1.4866389            0.2525869
 Traceless YY        :          1.7392258           -1.4866389            0.2525869
 Traceless ZZ        :         -3.4784516            2.9732778           -0.5051738

 ------------------------------------------------------------------------------------
  ==> Computing MBIS Charges <==

  Electron Count from Grid (Expected Number):  8.00000 ( 8.00000)
  Difference:  0.00000

  MBIS Charges: (a.u.)
   Center  Symbol  Z      Pop.       Charge
      1       C    6    6.968879   -0.968879
      2       H    1    1.031121   -0.031121

  MBIS Dipoles: [e a0]
   Center  Symbol  Z        X           Y           Z
      1       C    6   -0.000000   -0.000000    0.231342
      2       H    1    0.000000    0.000000   -0.003273

  MBIS Quadrupoles: [e a0^2]
   Center  Symbol  Z      XX        XY        XZ        YY        YZ        ZZ
      1       C    6   -7.2100    0.0000    0.0000   -7.2100    0.0000   -7.6350
      2       H    1   -0.8290    0.0000   -0.0000   -0.8290   -0.0000   -0.9055

  MBIS Octupoles: [e a0^3]
   Center  Symbol  Z      XXX       XXY       XXZ       XYY       XYZ       XZZ       YYY       YYZ       YZZ       ZZZ
      1       C    6   -0.0000    0.0000    0.2709   -0.0000   -0.0000   -0.0000   -0.0000    0.2709   -0.0000   -0.6979
      2       H    1   -0.0000    0.0000   -0.0641   -0.0000   -0.0000   -0.0000   -0.0000   -0.0641   -0.0000   -0.1890

  MBIS Radial Moments:
   Center  Symbol  Z      [a0^2]      [a0^3]      [a0^4]
      1       C    6   22.055069   63.043422   212.549878
      2       H    1    2.563518    5.902496   16.246902

  MBIS Valence Widths: [a0]
   Center  Symbol  Z     Width
      1       C    6    0.596172
      2       H    1    0.452605

*** tstop() called on Mac.lan at Sun Aug 10 17:35:54 2025
Module time:
	user time   =       3.24 seconds =       0.05 minutes
	system time =       1.46 seconds =       0.02 minutes
	total time  =          1 seconds =       0.02 minutes
Total time:
	user time   =      13.80 seconds =       0.23 minutes
	system time =       3.71 seconds =       0.06 minutes
	total time  =          2 seconds =       0.03 minutes

    Psi4 stopped on: Sunday, 10 August 2025 05:35PM
    Psi4 wall time for execution: 0:00:01.70

*** Psi4 exiting successfully. Buy a developer a beer!
