                               Psi4 1.9.1 release

  ==> Input File <==

--------------------------------------------------------------------------
molecule {
-1 2
O           0.000000           0.000000           0.000000
O           0.000000           0.000000           0.727243
}

set {
basis              cc-pvtz
reference          uks
maxiter            500
DAMPING_PERCENTAGE 1
E_CONVERGENCE      1.0E-8
D_CONVERGENCE      1.0E-8
DIIS_MAX_VECS      400
MBIS_MAXITER       8000
guess              read
}

E, wfn = energy('b3lyp', restart_file='last_wfn', return_wfn=True)
properties('b3lyp','MBIS_CHARGES', wfn=wfn)
wfn.to_file('last_wfn')
--------------------------------------------------------------------------

    Molecular point group: d2h
  Charge       = -1
  Multiplicity = 2
  Basis Set: CC-PVTZ
    Blend: CC-PVTZ
  Basis Set: (CC-PVTZ AUX)
    Blend: CC-PVTZ-JKFIT
  @DF-UKS Final Energy:  -148.82813290195526
    Total Energy =                       -148.8281329019552572
 Dipole X            :          0.0000000            0.0000000            0.0000000
 Dipole Y            :          0.0000000            0.0000000            0.0000000
 Dipole Z            :          0.0000000            0.0000000            0.0000000
 Magnitude           :                                                    0.0000000
    Molecular point group: d2h

    Geometry (in Angstrom), charge = -1, multiplicity = 2:

       Center              X                  Y                   Z               Mass
    ------------   -----------------  -----------------  -----------------  -----------------
         O            0.000000000000     0.000000000000    -0.363621500000    15.994914619570
         O            0.000000000000     0.000000000000     0.363621500000    15.994914619570

  Charge       = -1
  Multiplicity = 2
  Basis Set: CC-PVTZ
    Blend: CC-PVTZ
  Basis Set: (CC-PVTZ AUX)
    Blend: CC-PVTZ-JKFIT

    Orbital Energies [Eh]
    ---------------------

    Alpha Occupied:

       1Ag   -18.849881     1B1u  -18.821431     2Ag    -1.411874
       1B2u   -0.491027     1B3u   -0.455080     2B1u   -0.281078
       3Ag    -0.260933     1B3g    0.355839     1B2g    0.390022

    Alpha Virtual:

       3B1u    0.622387     2B2u    0.707450     2B3u    0.728091
       4Ag     0.772406     2B3g    0.994713     2B2g    1.018829
       5Ag     1.025603     1B1g    1.486715     6Ag     1.487111
       4B1u    1.499110     5B1u    1.952959     3B2u    2.064437
       3B3u    2.094493     1Au     2.209319     6B1u    2.210074
       7Ag     2.353430     3B3g    2.600097     3B2g    2.624623
       4B2u    3.612861     4B3u    3.643253     7B1u    3.842658
       8Ag     4.492653     4B3g    4.542092     4B2g    4.574838
       5B2u    4.899279     5B3u    4.899285     8B1u    4.917193
       2B1g    5.084928     9Ag     5.085417     6B2u    5.668054
       6B3u    5.697060     5B3g    6.013928     5B2g    6.013957
      10Ag     6.044274     6B3g    6.157778     6B2g    6.186082
       9B1u    6.396806     2Au     6.396983    11Ag     6.436495
       3B1g    6.436938    12Ag     6.502786    10B1u    7.215764
       7B2u    7.566809     7B3u    7.596267     3Au     7.844343
      11B1u    7.844599    12B1u    9.606686     7B3g   10.407698
       7B2g   10.438258    13Ag    11.713943    13B1u   33.990248

    Beta Occupied:

       1Ag   -18.840033     1B1u  -18.811400     2Ag    -1.400012
       1B3u   -0.446396     1B2u   -0.433140     2B1u   -0.244046
       3Ag    -0.236244     1B2g    0.402074

    Beta Virtual:

       1B3g    0.500111     3B1u    0.631234     2B2u    0.731196
       2B3u    0.732161     4Ag     0.779506     2B2g    1.027591
       5Ag     1.039071     2B3g    1.051744     1B1g    1.503930
       6Ag     1.504909     4B1u    1.520133     5B1u    1.972569
       3B3u    2.098955     3B2u    2.103903     1Au     2.242697
       6B1u    2.244392     7Ag     2.360630     3B2g    2.630140
       3B3g    2.638370     4B3u    3.650031     4B2u    3.650218
       7B1u    3.856782     8Ag     4.504614     4B2g    4.584055
       4B3g    4.590890     5B3u    4.920427     5B2u    4.920508
       8B1u    4.942360     2B1g    5.098845     9Ag     5.099694
       6B3u    5.701793     6B2u    5.704398     5B2g    6.046258
       5B3g    6.046389    10Ag     6.058508     6B2g    6.190013
       6B3g    6.193588     2Au     6.434195     9B1u    6.436141
       3B1g    6.472314    11Ag     6.473943    12Ag     6.514280
      10B1u    7.230740     7B2u    7.598211     7B3u    7.599736
       3Au     7.870280    11B1u    7.871465    12B1u    9.618250
       7B2g   10.444155     7B3g   10.447077    13Ag    11.733166
      13B1u   34.002954

    Final Occupation by Irrep:
             Ag   B1g   B2g   B3g    Au   B1u   B2u   B3u
    DOCC [     3,    0,    1,    0,    0,    2,    1,    1 ]
    SOCC [     0,    0,    0,    1,    0,    0,    0,    0 ]
    NA   [     3,    0,    1,    1,    0,    2,    1,    1 ]
    NB   [     3,    0,    1,    0,    0,    2,    1,    1 ]

  @DF-UKS Final Energy:  -148.82813290180385

   => Energetics <=

    Nuclear Repulsion Energy =             46.5694980671934928
    One-Electron Energy =                -300.4237148990107471
    Two-Electron Energy =                 119.7358159627030432
    DFT Exchange-Correlation Energy =     -14.7097320326896259
    Empirical Dispersion Energy =           0.0000000000000000
    VV10 Nonlocal Energy =                  0.0000000000000000
    Total Energy =                       -148.8281329018038548

  UHF NO Occupations:
  HONO-2 :    1B2u 1.9998722
  HONO-1 :    2B1u 1.9998544
  HONO-0 :    1B3g 1.0000000
  LUNO+0 :    3B1u 0.0001456
  LUNO+1 :    2B2u 0.0001278
  LUNO+2 :    4 Ag 0.0000832
  LUNO+3 :    2B2g 0.0000351

Computation Completed

Properties will be evaluated at   0.000000,   0.000000,   0.000000 [a0]

Properties computed using the B3LYP density matrix

 Multipole Moments:

 ------------------------------------------------------------------------------------
     Multipole            Electronic (a.u.)      Nuclear  (a.u.)        Total (a.u.)
 ------------------------------------------------------------------------------------

 L = 1.  Multiply by 2.5417464519 to convert [e a0] to [Debye]
 Dipole X            :          0.0000000            0.0000000            0.0000000
 Dipole Y            :          0.0000000            0.0000000            0.0000000
 Dipole Z            :          0.0000000            0.0000000            0.0000000
 Magnitude           :                                                    0.0000000

 L = 2.  Multiply by 1.3450342976 to convert [e a0^2] to [Debye ang]
 Quadrupole XX       :         -9.3798638            0.0000000           -9.3798638
 Quadrupole XY       :          0.0000000            0.0000000            0.0000000
 Quadrupole XZ       :          0.0000000            0.0000000            0.0000000
 Quadrupole YY       :         -8.1237199            0.0000000           -8.1237199
 Quadrupole YZ       :          0.0000000            0.0000000            0.0000000
 Quadrupole ZZ       :        -19.2109904            7.5546931          -11.6562973
 Traceless XX        :          2.8583276           -2.5182310            0.3400965
 Traceless YY        :          4.1144715           -2.5182310            1.5962404
 Traceless ZZ        :         -6.9727990            5.0364621           -1.9363370

 ------------------------------------------------------------------------------------
  ==> Computing MBIS Charges <==

  Electron Count from Grid (Expected Number): 17.00000 (17.00000)
  Difference:  0.00000

  MBIS Charges: (a.u.)
   Center  Symbol  Z      Pop.       Charge
      1       O    8    8.500001   -0.500001
      2       O    8    8.500001   -0.500001

  MBIS Dipoles: [e a0]
   Center  Symbol  Z        X           Y           Z
      1       O    8    0.000000   -0.000000    0.410810
      2       O    8   -0.000000    0.000000   -0.410810

  MBIS Quadrupoles: [e a0^2]
   Center  Symbol  Z      XX        XY        XZ        YY        YZ        ZZ
      1       O    8   -4.6899   -0.0000   -0.0000   -4.0619    0.0000   -5.0275
      2       O    8   -4.6899   -0.0000   -0.0000   -4.0619    0.0000   -5.0275

  MBIS Octupoles: [e a0^3]
   Center  Symbol  Z      XXX       XXY       XXZ       XYY       XYZ       XZZ       YYY       YYZ       YZZ       ZZZ
      1       O    8   -0.0000   -0.0000    1.1206   -0.0000   -0.0000   -0.0000    0.0000    0.7852    0.0000    0.5116
      2       O    8   -0.0000   -0.0000   -1.1206   -0.0000    0.0000   -0.0000    0.0000   -0.7852    0.0000   -0.5116

  MBIS Radial Moments:
   Center  Symbol  Z      [a0^2]      [a0^3]      [a0^4]
      1       O    8   13.779284   28.975304   73.578697
      2       O    8   13.779284   28.975304   73.578697

  MBIS Valence Widths: [a0]
   Center  Symbol  Z     Width
      1       O    8    0.405854
      2       O    8    0.405854

*** tstop() called on Mac.lan at Sun Aug 10 17:27:44 2025
Module time:
	user time   =       3.83 seconds =       0.06 minutes
	system time =       2.08 seconds =       0.03 minutes
	total time  =          1 seconds =       0.02 minutes
Total time:
	user time   =      17.78 seconds =       0.30 minutes
	system time =       4.34 seconds =       0.07 minutes
	total time  =          3 seconds =       0.05 minutes

    Psi4 stopped on: Sunday, 10 August 2025 05:27PM
    Psi4 wall time for execution: 0:00:02.14

*** Psi4 exiting successfully. Buy a developer a beer!
