                               Psi4 1.9.1 release

  ==> Input File <==

--------------------------------------------------------------------------
molecule {
-1 1
O           0.000000           0.000000           0.000000
H           0.000000           0.000000           0.544983
}

set {
basis              cc-pvtz
reference          uks
maxiter            500
DAMPING_PERCENTAGE 1
E_CONVERGENCE      1.0E-8
D_CONVERGENCE      1.0E-8
DIIS_MAX_VECS      400
MBIS_MAXITER       8000
guess              read
}

E, wfn = energy('b3lyp', restart_file='last_wfn', return_wfn=True)
properties('b3lyp','MBIS_CHARGES', wfn=wfn)
wfn.to_file('last_wfn')
--------------------------------------------------------------------------

    Molecular point group: c2v
  Charge       = -1
  Multiplicity = 1
  Basis Set: CC-PVTZ
    Blend: CC-PVTZ
  Basis Set: (CC-PVTZ AUX)
    Blend: CC-PVTZ-JKFIT
  @DF-UKS Final Energy:   -75.26189145216040
    Total Energy =                        -75.2618914521603983
 Dipole X            :          0.0000000            0.0000000            0.0000000
 Dipole Y            :          0.0000000            0.0000000            0.0000000
 Dipole Z            :          0.1587753            0.4804662            0.6392415
 Magnitude           :                                                    0.6392415
    Molecular point group: c2v

    Geometry (in Angstrom), charge = -1, multiplicity = 1:

       Center              X                  Y                   Z               Mass
    ------------   -----------------  -----------------  -----------------  -----------------
         O            0.000000000000     0.000000000000    -0.032303471134    15.994914619570
         H            0.000000000000     0.000000000000     0.512679528866     1.007825032230

  Charge       = -1
  Multiplicity = 1
  Basis Set: CC-PVTZ
    Blend: CC-PVTZ
  Basis Set: (CC-PVTZ AUX)
    Blend: CC-PVTZ-JKFIT

    Orbital Energies [Eh]
    ---------------------

    Alpha Occupied:

       1A1   -18.606276     2A1    -0.686102     3A1    -0.043986
       1B2     0.114597     1B1     0.114597

    Alpha Virtual:

       4A1     0.335890     5A1     0.793969     2B2     0.891805
       2B1     0.891805     6A1     1.060558     7A1     1.165445
       3B2     1.188279     3B1     1.188279     1A2     1.891105
       8A1     1.891105     9A1     2.185894     4B2     2.292366
       4B1     2.292366    10A1     2.647921    11A1     3.417382
       5B2     3.702281     5B1     3.702281    12A1     3.877361
       2A2     3.877361     6B2     4.128875     6B1     4.128875
      13A1     4.388782    14A1     5.252958     7B2     5.313846
       7B1     5.313846     8B1     5.589231     8B2     5.589231
       3A2     6.474900    15A1     6.474900     9B2     6.594371
       9B1     6.594371    16A1     6.641255     4A2     6.797667
      17A1     6.797668    18A1     8.662098    19A1     9.247775
      10B2     9.260940    10B1     9.260940    20A1    17.097352

    Beta Occupied:

       1A1   -18.606276     2A1    -0.686102     3A1    -0.043986
       1B2     0.114597     1B1     0.114597

    Beta Virtual:

       4A1     0.335890     5A1     0.793969     2B2     0.891805
       2B1     0.891805     6A1     1.060558     7A1     1.165445
       3B2     1.188279     3B1     1.188279     1A2     1.891105
       8A1     1.891105     9A1     2.185894     4B2     2.292366
       4B1     2.292366    10A1     2.647921    11A1     3.417382
       5B2     3.702281     5B1     3.702281    12A1     3.877361
       2A2     3.877361     6B2     4.128875     6B1     4.128875
      13A1     4.388782    14A1     5.252958     7B2     5.313846
       7B1     5.313846     8B1     5.589231     8B2     5.589231
       3A2     6.474900    15A1     6.474900     9B2     6.594371
       9B1     6.594371    16A1     6.641255     4A2     6.797667
      17A1     6.797668    18A1     8.662098    19A1     9.247775
      10B2     9.260940    10B1     9.260940    20A1    17.097352

    Final Occupation by Irrep:
             A1    A2    B1    B2
    DOCC [     3,    0,    1,    1 ]
    SOCC [     0,    0,    0,    0 ]
    NA   [     3,    0,    1,    1 ]
    NB   [     3,    0,    1,    1 ]

  @DF-UKS Final Energy:   -75.26189145344503

   => Energetics <=

    Nuclear Repulsion Energy =              7.7679811762201760
    One-Electron Energy =                -122.2975229939057726
    Two-Electron Energy =                  46.9996355677867754
    DFT Exchange-Correlation Energy =      -7.7319852035462153
    Empirical Dispersion Energy =           0.0000000000000000
    VV10 Nonlocal Energy =                  0.0000000000000000
    Total Energy =                        -75.2618914534450454

  UHF NO Occupations:
  HONO-2 :    1 B2 2.0000000
  HONO-1 :    1 B1 2.0000000
  HONO-0 :    3 A1 2.0000000
  LUNO+0 :    4 A1 0.0000000
  LUNO+1 :    5 A1 0.0000000
  LUNO+2 :    6 A1 0.0000000
  LUNO+3 :    7 A1 0.0000000

Computation Completed

Properties will be evaluated at   0.000000,   0.000000,   0.000000 [a0]

Properties computed using the B3LYP density matrix

 Multipole Moments:

 ------------------------------------------------------------------------------------
     Multipole            Electronic (a.u.)      Nuclear  (a.u.)        Total (a.u.)
 ------------------------------------------------------------------------------------

 L = 1.  Multiply by 2.5417464519 to convert [e a0] to [Debye]
 Dipole X            :          0.0000000            0.0000000            0.0000000
 Dipole Y            :          0.0000000            0.0000000            0.0000000
 Dipole Z            :          0.1587753            0.4804662            0.6392415
 Magnitude           :                                                    0.6392415

 L = 2.  Multiply by 1.3450342976 to convert [e a0^2] to [Debye ang]
 Quadrupole XX       :         -5.9431667            0.0000000           -5.9431667
 Quadrupole XY       :          0.0000000            0.0000000            0.0000000
 Quadrupole XZ       :          0.0000000            0.0000000            0.0000000
 Quadrupole YY       :         -5.9431667            0.0000000           -5.9431667
 Quadrupole YZ       :          0.0000000            0.0000000            0.0000000
 Quadrupole ZZ       :         -5.8944845            0.9684314           -4.9260531
 Traceless XX        :         -0.0162274           -0.3228105           -0.3390379
 Traceless YY        :         -0.0162274           -0.3228105           -0.3390379
 Traceless ZZ        :          0.0324548            0.6456209            0.6780758

 ------------------------------------------------------------------------------------
  ==> Computing MBIS Charges <==

  Electron Count from Grid (Expected Number): 10.00000 (10.00000)
  Difference: -0.00000

  MBIS Charges: (a.u.)
   Center  Symbol  Z      Pop.       Charge
      1       O    8    9.510591   -1.510591
      2       H    1    0.489409    0.510591

  MBIS Dipoles: [e a0]
   Center  Symbol  Z        X           Y           Z
      1       O    8   -0.000000   -0.000000    0.038178
      2       H    1    0.000000   -0.000000    0.014177

  MBIS Quadrupoles: [e a0^2]
   Center  Symbol  Z      XX        XY        XZ        YY        YZ        ZZ
      1       O    8   -5.8519    0.0000    0.0000   -5.8519   -0.0000   -5.3350
      2       H    1   -0.0912   -0.0000   -0.0000   -0.0912    0.0000   -0.0874

  MBIS Octupoles: [e a0^3]
   Center  Symbol  Z      XXX       XXY       XXZ       XYY       XYZ       XZZ       YYY       YYZ       YZZ       ZZZ
      1       O    8   -0.0000   -0.0000    0.2495   -0.0000   -0.0000   -0.0000    0.0000    0.2495   -0.0000    0.5051
      2       H    1    0.0000   -0.0000    0.0028   -0.0000   -0.0000   -0.0000    0.0000    0.0028    0.0000    0.0063

  MBIS Radial Moments:
   Center  Symbol  Z      [a0^2]      [a0^3]      [a0^4]
      1       O    8   17.038904   35.623731   87.873734
      2       H    1    0.269914    0.285869    0.364731

  MBIS Valence Widths: [a0]
   Center  Symbol  Z     Width
      1       O    8    0.426201
      2       H    1    0.216287

*** tstop() called on Mac.lan at Sun Aug 10 17:37:27 2025
Module time:
	user time   =       3.23 seconds =       0.05 minutes
	system time =       3.36 seconds =       0.06 minutes
	total time  =          1 seconds =       0.02 minutes
Total time:
	user time   =      12.35 seconds =       0.21 minutes
	system time =       5.36 seconds =       0.09 minutes
	total time  =          2 seconds =       0.03 minutes

    Psi4 stopped on: Sunday, 10 August 2025 05:37PM
    Psi4 wall time for execution: 0:00:01.72

*** Psi4 exiting successfully. Buy a developer a beer!
