                               Psi4 1.9.1 release

  ==> Input File <==

--------------------------------------------------------------------------
molecule {
-1 3
O           0.000000           0.000000           0.000000
N           0.000000           0.000000           0.920665
}

set {
basis              cc-pvtz
reference          uks
maxiter            500
DAMPING_PERCENTAGE 1
E_CONVERGENCE      1.0E-8
D_CONVERGENCE      1.0E-8
DIIS_MAX_VECS      400
MBIS_MAXITER       8000
guess              read
}

E, wfn = energy('b3lyp', restart_file='last_wfn', return_wfn=True)
properties('b3lyp','MBIS_CHARGES', wfn=wfn)
wfn.to_file('last_wfn')
--------------------------------------------------------------------------

    Molecular point group: c2v
  Charge       = -1
  Multiplicity = 3
  Basis Set: CC-PVTZ
    Blend: CC-PVTZ
  Basis Set: (CC-PVTZ AUX)
    Blend: CC-PVTZ-JKFIT
  @DF-UKS Final Energy:  -129.62334854747607
    Total Energy =                       -129.6233485474760698
 Dipole X            :          0.0000000            0.0000000            0.0000000
 Dipole Y            :          0.0000000            0.0000000            0.0000000
 Dipole Z            :         -0.7313635           -0.0034908           -0.7348543
 Magnitude           :                                                    0.7348543
    Molecular point group: c2v

    Geometry (in Angstrom), charge = -1, multiplicity = 3:

       Center              X                  Y                   Z               Mass
    ------------   -----------------  -----------------  -----------------  -----------------
         O            0.000000000000     0.000000000000    -0.429766818365    15.994914619570
         N            0.000000000000     0.000000000000     0.490898181635    14.003074004430

  Charge       = -1
  Multiplicity = 3
  Basis Set: CC-PVTZ
    Blend: CC-PVTZ
  Basis Set: (CC-PVTZ AUX)
    Blend: CC-PVTZ-JKFIT

    Orbital Energies [Eh]
    ---------------------

    Alpha Occupied:

       1A1   -18.823919     2A1   -13.964532     3A1    -1.036734
       4A1    -0.288096     1B2    -0.258561     1B1    -0.258561
       5A1    -0.121286     2B2     0.268919     2B1     0.268919

    Alpha Virtual:

       6A1     0.518626     3B2     0.693537     3B1     0.693537
       7A1     0.722606     8A1     0.837299     4B2     0.904817
       4B1     0.904817     9A1     1.260489     1A2     1.260490
      10A1     1.359743    11A1     1.521769     5B2     1.623232
       5B1     1.623232     2A2     1.946054    12A1     1.946055
      13A1     2.271531     6B2     2.415126     6B1     2.415126
      14A1     2.784393     7B1     3.146170     7B2     3.146170
      15A1     3.566875    16A1     4.064158     8B2     4.121704
       8B1     4.121704     9B2     4.161497     9B1     4.161497
      17A1     4.259168     3A2     4.259168    10B2     4.549742
      10B1     4.549742    18A1     4.764298     4A2     4.764299
      19A1     5.028678    11B2     5.213981    11B1     5.213981
      12B2     5.502984    12B1     5.502984    20A1     5.975292
       5A2     6.473894    21A1     6.473895     6A2     6.538506
      22A1     6.538509    13B2     6.948615    13B1     6.948615
      23A1     7.134090    24A1     7.713432    14B2     8.281627
      14B1     8.281627    25A1     9.097019    26A1    20.693788

    Beta Occupied:

       1A1   -18.804375     2A1   -13.944274     3A1    -1.007633
       4A1    -0.234348     1B2    -0.192401     1B1    -0.192401
       5A1    -0.064960

    Beta Virtual:

       2B2     0.419272     2B1     0.419272     6A1     0.529705
       3B2     0.727437     3B1     0.727437     7A1     0.743818
       8A1     0.863834     4B2     0.954150     4B1     0.954150
       1A2     1.303003     9A1     1.303003    10A1     1.397696
      11A1     1.540160     5B2     1.660171     5B1     1.660171
      12A1     1.997487     2A2     1.997487    13A1     2.294207
       6B2     2.448980     6B1     2.448980    14A1     2.816703
       7B1     3.203772     7B2     3.203772    15A1     3.595977
      16A1     4.092246     8B2     4.182378     8B1     4.182378
       9B2     4.212775     9B1     4.212775    17A1     4.291523
       3A2     4.291523    10B2     4.587528    10B1     4.587528
      18A1     4.849949     4A2     4.849950    19A1     5.057178
      11B2     5.246748    11B1     5.246748    12B2     5.552811
      12B1     5.552811    20A1     6.003624     5A2     6.521112
      21A1     6.521112     6A2     6.601479    22A1     6.601482
      13B2     6.983654    13B1     6.983654    23A1     7.152787
      24A1     7.737432    14B2     8.319886    14B1     8.319886
      25A1     9.131192    26A1    20.722230

    Final Occupation by Irrep:
             A1    A2    B1    B2
    DOCC [     5,    0,    1,    1 ]
    SOCC [     0,    0,    1,    1 ]
    NA   [     5,    0,    2,    2 ]
    NB   [     5,    0,    1,    1 ]

  @DF-UKS Final Energy:  -129.62334854722496

   => Energetics <=

    Nuclear Repulsion Energy =             32.1875207567573511
    One-Electron Energy =                -245.6541442781980891
    Two-Electron Energy =                  96.8200847772835829
    DFT Exchange-Correlation Energy =     -12.9768098030678019
    Empirical Dispersion Energy =           0.0000000000000000
    VV10 Nonlocal Energy =                  0.0000000000000000
    Total Energy =                       -129.6233485472249640

  UHF NO Occupations:
  HONO-2 :    5 A1 1.9995064
  HONO-1 :    2 B1 1.0000000
  HONO-0 :    2 B2 1.0000000
  LUNO+0 :    6 A1 0.0004936
  LUNO+1 :    3 B2 0.0004344
  LUNO+2 :    3 B1 0.0004344
  LUNO+3 :    7 A1 0.0001510

Computation Completed

Properties will be evaluated at   0.000000,   0.000000,   0.000000 [a0]

Properties computed using the B3LYP density matrix

 Multipole Moments:

 ------------------------------------------------------------------------------------
     Multipole            Electronic (a.u.)      Nuclear  (a.u.)        Total (a.u.)
 ------------------------------------------------------------------------------------

 L = 1.  Multiply by 2.5417464519 to convert [e a0] to [Debye]
 Dipole X            :          0.0000000            0.0000000            0.0000000
 Dipole Y            :          0.0000000            0.0000000            0.0000000
 Dipole Z            :         -0.7313635           -0.0034908           -0.7348543
 Magnitude           :                                                    0.7348543

 L = 2.  Multiply by 1.3450342976 to convert [e a0^2] to [Debye ang]
 Quadrupole XX       :         -9.3591397            0.0000000           -9.3591397
 Quadrupole XY       :          0.0000000            0.0000000            0.0000000
 Quadrupole XZ       :          0.0000000            0.0000000            0.0000000
 Quadrupole YY       :         -9.3591397            0.0000000           -9.3591397
 Quadrupole YZ       :          0.0000000            0.0000000            0.0000000
 Quadrupole ZZ       :        -23.3189560           11.3005037          -12.0184523
 Traceless XX        :          4.6532721           -3.7668346            0.8864375
 Traceless YY        :          4.6532721           -3.7668346            0.8864375
 Traceless ZZ        :         -9.3065442            7.5336691           -1.7728751

 ------------------------------------------------------------------------------------
  ==> Computing MBIS Charges <==

  Electron Count from Grid (Expected Number): 16.00000 (16.00000)
  Difference: -0.00000

  MBIS Charges: (a.u.)
   Center  Symbol  Z      Pop.       Charge
      1       O    8    8.168655   -0.168655
      2       N    7    7.831345   -0.831345

  MBIS Dipoles: [e a0]
   Center  Symbol  Z        X           Y           Z
      1       O    8    0.000000    0.000000    0.252743
      2       N    7    0.000000   -0.000000   -0.353361

  MBIS Quadrupoles: [e a0^2]
   Center  Symbol  Z      XX        XY        XZ        YY        YZ        ZZ
      1       O    8   -3.6527   -0.0000   -0.0000   -3.6527    0.0000   -4.1374
      2       N    7   -5.7065   -0.0000    0.0000   -5.7065   -0.0000   -5.9883

  MBIS Octupoles: [e a0^3]
   Center  Symbol  Z      XXX       XXY       XXZ       XYY       XYZ       XZZ       YYY       YYZ       YZZ       ZZZ
      1       O    8    0.0000   -0.0000    0.3821    0.0000    0.0000    0.0000   -0.0000    0.3821   -0.0000    0.5370
      2       N    7    0.0000   -0.0000   -0.9673    0.0000   -0.0000    0.0000   -0.0000   -0.9673   -0.0000    0.1158

  MBIS Radial Moments:
   Center  Symbol  Z      [a0^2]      [a0^3]      [a0^4]
      1       O    8   11.442775   21.681169   49.545721
      2       N    7   17.401168   41.724183   118.409252

  MBIS Valence Widths: [a0]
   Center  Symbol  Z     Width
      1       O    8    0.381442
      2       N    7    0.486229

*** tstop() called on Mac.lan at Sun Aug 10 17:45:39 2025
Module time:
	user time   =      30.19 seconds =       0.50 minutes
	system time =       3.73 seconds =       0.06 minutes
	total time  =          3 seconds =       0.05 minutes
Total time:
	user time   =     164.34 seconds =       2.74 minutes
	system time =      10.12 seconds =       0.17 minutes
	total time  =         18 seconds =       0.30 minutes

    Psi4 stopped on: Sunday, 10 August 2025 05:45PM
    Psi4 wall time for execution: 0:00:17.59

*** Psi4 exiting successfully. Buy a developer a beer!
