                               Psi4 1.9.1 release

  ==> Input File <==

--------------------------------------------------------------------------
molecule {
-1 1
N           0.000000           0.000000           0.000000
C           0.000000           0.000000           0.821772
}

set {
basis              cc-pvtz
reference          uks
maxiter            500
DAMPING_PERCENTAGE 1
E_CONVERGENCE      1.0E-8
D_CONVERGENCE      1.0E-8
DIIS_MAX_VECS      400
MBIS_MAXITER       8000
guess              read
}

E, wfn = energy('b3lyp', restart_file='last_wfn', return_wfn=True)
properties('b3lyp','MBIS_CHARGES', wfn=wfn)
wfn.to_file('last_wfn')
--------------------------------------------------------------------------

    Molecular point group: c2v
  Charge       = -1
  Multiplicity = 1
  Basis Set: CC-PVTZ
    Blend: CC-PVTZ
  Basis Set: (CC-PVTZ AUX)
    Blend: CC-PVTZ-JKFIT
  @DF-UKS Final Energy:   -92.31446944082242
    Total Energy =                        -92.3144694408224211
 Dipole X            :          0.0000000            0.0000000            0.0000000
 Dipole Y            :          0.0000000            0.0000000            0.0000000
 Dipole Z            :         -0.4319248            0.0011015           -0.4308233
 Magnitude           :                                                    0.4308233
    Molecular point group: c2v

    Geometry (in Angstrom), charge = -1, multiplicity = 1:

       Center              X                  Y                   Z               Mass
    ------------   -----------------  -----------------  -----------------  -----------------
         N            0.000000000000     0.000000000000    -0.379234547359    14.003074004430
         C            0.000000000000     0.000000000000     0.442537452641    12.000000000000

  Charge       = -1
  Multiplicity = 1
  Basis Set: CC-PVTZ
    Blend: CC-PVTZ
  Basis Set: (CC-PVTZ AUX)
    Blend: CC-PVTZ-JKFIT

    Orbital Energies [Eh]
    ---------------------

    Alpha Occupied:

       1A1   -13.911536     2A1    -9.765566     3A1    -0.659463
       1B1    -0.143328     1B2    -0.143328     4A1    -0.062548
       5A1     0.012660

    Alpha Virtual:

       2B1     0.410683     2B2     0.410683     6A1     0.427371
       7A1     0.555496     3B2     0.581085     3B1     0.581085
       8A1     0.732084     4B1     0.843643     4B2     0.843643
       1A2     0.951784     9A1     0.951784    10A1     1.167288
       5B2     1.314460     5B1     1.314460    11A1     1.380942
      12A1     1.575531     2A2     1.575531     6B2     1.840102
       6B1     1.840102    13A1     1.896136     7B1     2.282157
       7B2     2.282157    14A1     2.587037    15A1     2.846631
       8B2     2.978351     8B1     2.978351     3A2     3.195362
      16A1     3.195362    17A1     3.297760     9B2     3.321074
       9B1     3.321074     4A2     3.381862    18A1     3.381862
      10B2     3.674248    10B1     3.674248    19A1     3.795596
      11B2     4.078397    11B1     4.078397    12B2     4.448529
      12B1     4.448529    20A1     4.880691     5A2     4.880692
      21A1     5.028492    13B2     5.460644    13B1     5.460644
      22A1     5.585008     6A2     5.585009    23A1     5.957702
      24A1     6.682273    14B2     6.824411    14B1     6.824411
      25A1     8.392596    26A1    18.108705

    Beta Occupied:

       1A1   -13.911536     2A1    -9.765566     3A1    -0.659463
       1B1    -0.143328     1B2    -0.143328     4A1    -0.062548
       5A1     0.012660

    Beta Virtual:

       2B1     0.410683     2B2     0.410683     6A1     0.427371
       7A1     0.555496     3B2     0.581085     3B1     0.581085
       8A1     0.732084     4B1     0.843643     4B2     0.843643
       1A2     0.951784     9A1     0.951784    10A1     1.167288
       5B2     1.314460     5B1     1.314460    11A1     1.380942
      12A1     1.575531     2A2     1.575531     6B2     1.840102
       6B1     1.840102    13A1     1.896136     7B1     2.282157
       7B2     2.282157    14A1     2.587037    15A1     2.846631
       8B2     2.978351     8B1     2.978351     3A2     3.195362
      16A1     3.195362    17A1     3.297760     9B2     3.321074
       9B1     3.321074     4A2     3.381862    18A1     3.381862
      10B2     3.674248    10B1     3.674248    19A1     3.795596
      11B2     4.078397    11B1     4.078397    12B2     4.448529
      12B1     4.448529    20A1     4.880691     5A2     4.880692
      21A1     5.028492    13B2     5.460644    13B1     5.460644
      22A1     5.585008     6A2     5.585009    23A1     5.957702
      24A1     6.682273    14B2     6.824411    14B1     6.824411
      25A1     8.392596    26A1    18.108705

    Final Occupation by Irrep:
             A1    A2    B1    B2
    DOCC [     5,    0,    1,    1 ]
    SOCC [     0,    0,    0,    0 ]
    NA   [     5,    0,    1,    1 ]
    NB   [     5,    0,    1,    1 ]

  @DF-UKS Final Energy:   -92.31446944069714

   => Energetics <=

    Nuclear Repulsion Energy =             27.0457533818869464
    One-Electron Energy =                -181.8177404661051924
    Two-Electron Energy =                  72.9701931459212148
    DFT Exchange-Correlation Energy =     -10.5126755024001177
    Empirical Dispersion Energy =           0.0000000000000000
    VV10 Nonlocal Energy =                  0.0000000000000000
    Total Energy =                        -92.3144694406971382

  UHF NO Occupations:
  HONO-2 :    3 A1 2.0000000
  HONO-1 :    4 A1 2.0000000
  HONO-0 :    5 A1 2.0000000
  LUNO+0 :    6 A1 0.0000000
  LUNO+1 :    7 A1 0.0000000
  LUNO+2 :    8 A1 0.0000000
  LUNO+3 :    9 A1 0.0000000

Computation Completed

Properties will be evaluated at   0.000000,   0.000000,   0.000000 [a0]

Properties computed using the B3LYP density matrix

 Multipole Moments:

 ------------------------------------------------------------------------------------
     Multipole            Electronic (a.u.)      Nuclear  (a.u.)        Total (a.u.)
 ------------------------------------------------------------------------------------

 L = 1.  Multiply by 2.5417464519 to convert [e a0] to [Debye]
 Dipole X            :          0.0000000            0.0000000            0.0000000
 Dipole Y            :          0.0000000            0.0000000            0.0000000
 Dipole Z            :         -0.4319248            0.0011015           -0.4308233
 Magnitude           :                                                    0.4308233

 L = 2.  Multiply by 1.3450342976 to convert [e a0^2] to [Debye ang]
 Quadrupole XX       :         -9.3029421            0.0000000           -9.3029421
 Quadrupole XY       :          0.0000000            0.0000000            0.0000000
 Quadrupole XZ       :          0.0000000            0.0000000            0.0000000
 Quadrupole YY       :         -9.3029421            0.0000000           -9.3029421
 Quadrupole YZ       :          0.0000000            0.0000000            0.0000000
 Quadrupole ZZ       :        -20.6647622            7.7912360          -12.8735262
 Traceless XX        :          3.7872734           -2.5970787            1.1901947
 Traceless YY        :          3.7872734           -2.5970787            1.1901947
 Traceless ZZ        :         -7.5745467            5.1941573           -2.3803894

 ------------------------------------------------------------------------------------
  ==> Computing MBIS Charges <==

  Electron Count from Grid (Expected Number): 14.00000 (14.00000)
  Difference:  0.00000

  MBIS Charges: (a.u.)
   Center  Symbol  Z      Pop.       Charge
      1       N    7    7.396356   -0.396356
      2       C    6    6.603645   -0.603645

  MBIS Dipoles: [e a0]
   Center  Symbol  Z        X           Y           Z
      1       N    7   -0.000000   -0.000000    0.111846
      2       C    6   -0.000000    0.000000   -0.321904

  MBIS Quadrupoles: [e a0^2]
   Center  Symbol  Z      XX        XY        XZ        YY        YZ        ZZ
      1       N    7   -4.0133    0.0000   -0.0000   -4.0133   -0.0000   -4.8587
      2       C    6   -5.2897    0.0000    0.0000   -5.2897    0.0000   -6.6904

  MBIS Octupoles: [e a0^3]
   Center  Symbol  Z      XXX       XXY       XXZ       XYY       XYZ       XZZ       YYY       YYZ       YZZ       ZZZ
      1       N    7   -0.0000   -0.0000    0.3063   -0.0000    0.0000   -0.0000   -0.0000    0.3063    0.0000    1.0246
      2       C    6   -0.0000   -0.0000   -0.7145   -0.0000    0.0000    0.0000    0.0000   -0.7145    0.0000   -1.7455

  MBIS Radial Moments:
   Center  Symbol  Z      [a0^2]      [a0^3]      [a0^4]
      1       N    7   12.885236   27.538523   70.871225
      2       C    6   17.269740   45.970296   144.855263

  MBIS Valence Widths: [a0]
   Center  Symbol  Z     Width
      1       N    7    0.431035
      2       C    6    0.541879

*** tstop() called on Mac.lan at Sun Aug 10 17:39:28 2025
Module time:
	user time   =       4.56 seconds =       0.08 minutes
	system time =       2.38 seconds =       0.04 minutes
	total time  =          0 seconds =       0.00 minutes
Total time:
	user time   =      17.99 seconds =       0.30 minutes
	system time =       3.58 seconds =       0.06 minutes
	total time  =          2 seconds =       0.03 minutes

    Psi4 stopped on: Sunday, 10 August 2025 05:39PM
    Psi4 wall time for execution: 0:00:02.09

*** Psi4 exiting successfully. Buy a developer a beer!
