                               Psi4 1.9.1 release

  ==> Input File <==

--------------------------------------------------------------------------
molecule {
-1 2
H           0.000000           0.000000           0.000000
H           0.000000           0.000000           1.636297
}

set {
basis              cc-pvtz
reference          uks
maxiter            500
DAMPING_PERCENTAGE 1
E_CONVERGENCE      1.0E-8
D_CONVERGENCE      1.0E-8
DIIS_MAX_VECS      400
MBIS_MAXITER       8000
guess              read
}

E, wfn = energy('b3lyp', restart_file='last_wfn', return_wfn=True)
properties('b3lyp','MBIS_CHARGES', wfn=wfn)
wfn.to_file('last_wfn')
--------------------------------------------------------------------------

    Molecular point group: d2h
  Charge       = -1
  Multiplicity = 2
  Basis Set: CC-PVTZ
    Blend: CC-PVTZ
  Basis Set: (CC-PVTZ AUX)
    Blend: CC-PVTZ-JKFIT
  @DF-UKS Final Energy:    -1.05647596227320
    Total Energy =                         -1.0564759622731965
 Dipole X            :          0.0000000            0.0000000            0.0000000
 Dipole Y            :          0.0000000            0.0000000            0.0000000
 Dipole Z            :          0.0000000            0.0000000            0.0000000
 Magnitude           :                                                    0.0000000
    Molecular point group: d2h

    Geometry (in Angstrom), charge = -1, multiplicity = 2:

       Center              X                  Y                   Z               Mass
    ------------   -----------------  -----------------  -----------------  -----------------
         H            0.000000000000     0.000000000000    -0.818148500000     1.007825032230
         H            0.000000000000     0.000000000000     0.818148500000     1.007825032230

  Charge       = -1
  Multiplicity = 2
  Basis Set: CC-PVTZ
    Blend: CC-PVTZ
  Basis Set: (CC-PVTZ AUX)
    Blend: CC-PVTZ-JKFIT

    Orbital Energies [Eh]
    ---------------------

    Alpha Occupied:

       1Ag    -0.033007     1B1u    0.099666

    Alpha Virtual:

       2Ag     0.504947     2B1u    0.532977     1B2u    0.808631
       1B3u    0.808631     3Ag     0.886461     1B2g    1.015521
       1B3g    1.015521     3B1u    1.377572     4Ag     2.471539
       4B1u    2.655947     5Ag     3.236092     2B2u    3.294445
       2B3u    3.294445     6Ag     3.472855     1B1g    3.472856
       5B1u    3.538545     1Au     3.538546     2B2g    3.720234
       2B3g    3.720234     3B2u    3.879734     3B3u    3.879734
       6B1u    3.911803     3B3g    4.042673     3B2g    4.042673
       7Ag     4.153385     7B1u    4.837040

    Beta Occupied:

       1Ag     0.023982

    Beta Virtual:

       1B1u    0.213212     2Ag     0.531271     2B1u    0.582578
       1B2u    0.836122     1B3u    0.836122     3Ag     0.924131
       1B2g    1.058033     1B3g    1.058033     3B1u    1.421547
       4Ag     2.546915     4B1u    2.728112     5Ag     3.273365
       2B2u    3.339463     2B3u    3.339463     6Ag     3.520479
       1B1g    3.520480     5B1u    3.587072     1Au     3.587073
       2B2g    3.763212     2B3g    3.763212     3B2u    3.942291
       3B3u    3.942291     6B1u    3.965645     3B3g    4.110069
       3B2g    4.110069     7Ag     4.214972     7B1u    4.890360

    Final Occupation by Irrep:
             Ag   B1g   B2g   B3g    Au   B1u   B2u   B3u
    DOCC [     1,    0,    0,    0,    0,    0,    0,    0 ]
    SOCC [     0,    0,    0,    0,    0,    1,    0,    0 ]
    NA   [     1,    0,    0,    0,    0,    1,    0,    0 ]
    NB   [     1,    0,    0,    0,    0,    0,    0,    0 ]

  @DF-UKS Final Energy:    -1.05647596193802

   => Energetics <=

    Nuclear Repulsion Energy =              0.3233992427230510
    One-Electron Energy =                  -2.3670084489978946
    Two-Electron Energy =                   1.6522944189265585
    DFT Exchange-Correlation Energy =      -0.6651611745897335
    Empirical Dispersion Energy =           0.0000000000000000
    VV10 Nonlocal Energy =                  0.0000000000000000
    Total Energy =                         -1.0564759619380184

  UHF NO Occupations:
  HONO-1 :    1 Ag 1.9973710
  HONO-0 :    1B1u 1.0000000
  LUNO+0 :    2 Ag 0.0026290
  LUNO+1 :    3 Ag 0.0000000
  LUNO+2 :    4 Ag 0.0000000
  LUNO+3 :    2B1u 0.0000000

Computation Completed

Properties will be evaluated at   0.000000,   0.000000,   0.000000 [a0]

Properties computed using the B3LYP density matrix

 Multipole Moments:

 ------------------------------------------------------------------------------------
     Multipole            Electronic (a.u.)      Nuclear  (a.u.)        Total (a.u.)
 ------------------------------------------------------------------------------------

 L = 1.  Multiply by 2.5417464519 to convert [e a0] to [Debye]
 Dipole X            :          0.0000000            0.0000000            0.0000000
 Dipole Y            :          0.0000000            0.0000000            0.0000000
 Dipole Z            :          0.0000000            0.0000000            0.0000000
 Magnitude           :                                                    0.0000000

 L = 2.  Multiply by 1.3450342976 to convert [e a0^2] to [Debye ang]
 Quadrupole XX       :         -4.3882791            0.0000000           -4.3882791
 Quadrupole XY       :          0.0000000            0.0000000            0.0000000
 Quadrupole XZ       :          0.0000000            0.0000000            0.0000000
 Quadrupole YY       :         -4.3882791            0.0000000           -4.3882791
 Quadrupole YZ       :          0.0000000            0.0000000            0.0000000
 Quadrupole ZZ       :        -12.6621344            4.7807057           -7.8814287
 Traceless XX        :          2.7579518           -1.5935686            1.1643832
 Traceless YY        :          2.7579518           -1.5935686            1.1643832
 Traceless ZZ        :         -5.5159036            3.1871371           -2.3287664

 ------------------------------------------------------------------------------------
  ==> Computing MBIS Charges <==

  Electron Count from Grid (Expected Number):  3.00000 ( 3.00000)
  Difference: -0.00000

  MBIS Charges: (a.u.)
   Center  Symbol  Z      Pop.       Charge
      1       H    1    1.500000   -0.500000
      2       H    1    1.500000   -0.500000

  MBIS Dipoles: [e a0]
   Center  Symbol  Z        X           Y           Z
      1       H    1   -0.000000   -0.000000    0.132655
      2       H    1   -0.000000   -0.000000   -0.132655

  MBIS Quadrupoles: [e a0^2]
   Center  Symbol  Z      XX        XY        XZ        YY        YZ        ZZ
      1       H    1   -2.1941   -0.0000   -0.0000   -2.1941   -0.0000   -2.3353
      2       H    1   -2.1941    0.0000   -0.0000   -2.1941   -0.0000   -2.3353

  MBIS Octupoles: [e a0^3]
   Center  Symbol  Z      XXX       XXY       XXZ       XYY       XYZ       XZZ       YYY       YYZ       YZZ       ZZZ
      1       H    1    0.0000   -0.0000    0.2372    0.0000    0.0000   -0.0000   -0.0000    0.2372   -0.0000    0.4027
      2       H    1    0.0000    0.0000   -0.2372   -0.0000   -0.0000    0.0000    0.0000   -0.2372    0.0000   -0.4027

  MBIS Radial Moments:
   Center  Symbol  Z      [a0^2]      [a0^3]      [a0^4]
      1       H    1    6.723629   20.091595   69.816085
      2       H    1    6.723629   20.091595   69.816085

  MBIS Valence Widths: [a0]
   Center  Symbol  Z     Width
      1       H    1    0.611622
      2       H    1    0.611622

*** tstop() called on Mac.lan at Sun Aug 10 17:26:36 2025
Module time:
	user time   =       0.47 seconds =       0.01 minutes
	system time =       1.35 seconds =       0.02 minutes
	total time  =          1 seconds =       0.02 minutes
Total time:
	user time   =       1.34 seconds =       0.02 minutes
	system time =       3.43 seconds =       0.06 minutes
	total time  =          1 seconds =       0.02 minutes

    Psi4 stopped on: Sunday, 10 August 2025 05:26PM
    Psi4 wall time for execution: 0:00:00.68

*** Psi4 exiting successfully. Buy a developer a beer!
