                               Psi4 1.9.1 release

  ==> Input File <==

--------------------------------------------------------------------------
molecule {
-1 3
C           0.000000           0.000000           0.000000
H           0.000000           0.000000           1.213573
}

set {
basis              cc-pvtz
reference          uks
maxiter            500
DAMPING_PERCENTAGE 1
E_CONVERGENCE      1.0E-8
D_CONVERGENCE      1.0E-8
DIIS_MAX_VECS      400
MBIS_MAXITER       8000
guess              read
}

E, wfn = energy('b3lyp', restart_file='last_wfn', return_wfn=True)
properties('b3lyp','MBIS_CHARGES', wfn=wfn)
wfn.to_file('last_wfn')
--------------------------------------------------------------------------

    Molecular point group: c2v
  Charge       = -1
  Multiplicity = 3
  Basis Set: CC-PVTZ
    Blend: CC-PVTZ
  Basis Set: (CC-PVTZ AUX)
    Blend: CC-PVTZ-JKFIT
  @DF-UKS Final Energy:   -38.52588760306414
    Total Energy =                        -38.5258876030641417
 Dipole X            :          0.0000000            0.0000000            0.0000000
 Dipole Y            :          0.0000000            0.0000000            0.0000000
 Dipole Z            :         -0.7647142            1.0495415            0.2848272
 Magnitude           :                                                    0.2848272
    Molecular point group: c2v

    Geometry (in Angstrom), charge = -1, multiplicity = 3:

       Center              X                  Y                   Z               Mass
    ------------   -----------------  -----------------  -----------------  -----------------
         C            0.000000000000     0.000000000000    -0.094025653390    12.000000000000
         H            0.000000000000     0.000000000000     1.119547346610     1.007825032230

  Charge       = -1
  Multiplicity = 3
  Basis Set: CC-PVTZ
    Blend: CC-PVTZ
  Basis Set: (CC-PVTZ AUX)
    Blend: CC-PVTZ-JKFIT

    Orbital Energies [Eh]
    ---------------------

    Alpha Occupied:

       1A1    -9.887089     2A1    -0.293407     3A1     0.006906
       1B2     0.083834     1B1     0.083834

    Alpha Virtual:

       4A1     0.290046     5A1     0.539492     2B1     0.572272
       2B2     0.572272     6A1     0.632381     7A1     0.707305
       3B2     0.864588     3B1     0.864588     8A1     0.963317
       1A2     0.963317     9A1     1.232040     4B1     1.297110
       4B2     1.297110    10A1     1.584782     5B2     2.279854
       5B1     2.279854    11A1     2.432870    12A1     2.596858
       2A2     2.874927    13A1     2.874927     6B2     2.936426
       6B1     2.936426     7B2     2.990323     7B1     2.990323
      14A1     3.175754     3A2     3.258188    15A1     3.258188
       8B2     3.397180     8B1     3.397180    16A1     3.458653
       4A2     3.794893    17A1     3.794893     9B1     4.073956
       9B2     4.073956    18A1     4.505143    10B1     4.791024
      10B2     4.791024    19A1     4.867464    20A1     7.560360

    Beta Occupied:

       1A1    -9.863513     2A1    -0.220772     3A1     0.039593

    Beta Virtual:

       1B2     0.241073     1B1     0.241073     4A1     0.298777
       5A1     0.554640     2B1     0.643442     2B2     0.643442
       6A1     0.653190     7A1     0.745214     3B2     0.891117
       3B1     0.891117     8A1     1.039796     1A2     1.039796
       9A1     1.255854     4B1     1.321455     4B2     1.321455
      10A1     1.601369     5B2     2.359185     5B1     2.359185
      11A1     2.451373    12A1     2.620685     2A2     2.924298
      13A1     2.924298     6B2     2.975267     6B1     2.975267
       7B2     3.086107     7B1     3.086107    14A1     3.209483
      15A1     3.377164     3A2     3.377164     8B2     3.449811
       8B1     3.449811    16A1     3.486868     4A2     3.812018
      17A1     3.812019     9B1     4.073220     9B2     4.073220
      18A1     4.521343    10B1     4.811855    10B2     4.811855
      19A1     4.875201    20A1     7.589284

    Final Occupation by Irrep:
             A1    A2    B1    B2
    DOCC [     3,    0,    0,    0 ]
    SOCC [     0,    0,    1,    1 ]
    NA   [     3,    0,    1,    1 ]
    NB   [     3,    0,    0,    0 ]

  @DF-UKS Final Energy:   -38.52588760327814

   => Energetics <=

    Nuclear Repulsion Energy =              2.6162935925733350
    One-Electron Energy =                 -58.8123662182030174
    Two-Electron Energy =                  22.4156431422791584
    DFT Exchange-Correlation Energy =      -4.7454581199276129
    Empirical Dispersion Energy =           0.0000000000000000
    VV10 Nonlocal Energy =                  0.0000000000000000
    Total Energy =                        -38.5258876032781359

  UHF NO Occupations:
  HONO-2 :    3 A1 1.9975614
  HONO-1 :    1 B2 1.0000000
  HONO-0 :    1 B1 1.0000000
  LUNO+0 :    4 A1 0.0024386
  LUNO+1 :    5 A1 0.0004788
  LUNO+2 :    6 A1 0.0000011
  LUNO+3 :    7 A1 0.0000000

Computation Completed

Properties will be evaluated at   0.000000,   0.000000,   0.000000 [a0]

Properties computed using the B3LYP density matrix

 Multipole Moments:

 ------------------------------------------------------------------------------------
     Multipole            Electronic (a.u.)      Nuclear  (a.u.)        Total (a.u.)
 ------------------------------------------------------------------------------------

 L = 1.  Multiply by 2.5417464519 to convert [e a0] to [Debye]
 Dipole X            :          0.0000000            0.0000000            0.0000000
 Dipole Y            :          0.0000000            0.0000000            0.0000000
 Dipole Z            :         -0.7647142            1.0495415            0.2848272
 Magnitude           :                                                    0.2848272

 L = 2.  Multiply by 1.3450342976 to convert [e a0^2] to [Debye ang]
 Quadrupole XX       :         -8.0566051            0.0000000           -8.0566051
 Quadrupole XY       :          0.0000000            0.0000000            0.0000000
 Quadrupole XZ       :          0.0000000            0.0000000            0.0000000
 Quadrupole YY       :         -8.0566051            0.0000000           -8.0566051
 Quadrupole YZ       :          0.0000000            0.0000000            0.0000000
 Quadrupole ZZ       :        -13.5545306            4.6653505           -8.8891801
 Traceless XX        :          1.8326418           -1.5551168            0.2775250
 Traceless YY        :          1.8326418           -1.5551168            0.2775250
 Traceless ZZ        :         -3.6652837            3.1102337           -0.5550500

 ------------------------------------------------------------------------------------
  ==> Computing MBIS Charges <==

  Electron Count from Grid (Expected Number):  8.00000 ( 8.00000)
  Difference:  0.00000

  MBIS Charges: (a.u.)
   Center  Symbol  Z      Pop.       Charge
      1       C    6    6.948760   -0.948760
      2       H    1    1.051240   -0.051240

  MBIS Dipoles: [e a0]
   Center  Symbol  Z        X           Y           Z
      1       C    6   -0.000000   -0.000000    0.230342
      2       H    1   -0.000000    0.000000   -0.005688

  MBIS Quadrupoles: [e a0^2]
   Center  Symbol  Z      XX        XY        XZ        YY        YZ        ZZ
      1       C    6   -7.1750    0.0000    0.0000   -7.1750    0.0000   -7.5627
      2       H    1   -0.8816   -0.0000   -0.0000   -0.8816    0.0000   -0.9613

  MBIS Octupoles: [e a0^3]
   Center  Symbol  Z      XXX       XXY       XXZ       XYY       XYZ       XZZ       YYY       YYZ       YZZ       ZZZ
      1       C    6    0.0000   -0.0000    0.2581   -0.0000   -0.0000   -0.0000   -0.0000    0.2581    0.0000   -0.6945
      2       H    1    0.0000    0.0000   -0.0722   -0.0000   -0.0000   -0.0000   -0.0000   -0.0722    0.0000   -0.2033

  MBIS Radial Moments:
   Center  Symbol  Z      [a0^2]      [a0^3]      [a0^4]
      1       C    6   21.912719   62.550750   210.685938
      2       H    1    2.724450    6.403106   17.969335

  MBIS Valence Widths: [a0]
   Center  Symbol  Z     Width
      1       C    6    0.595410
      2       H    1    0.461961

*** tstop() called on Mac.lan at Sun Aug 10 17:35:56 2025
Module time:
	user time   =       3.53 seconds =       0.06 minutes
	system time =       2.03 seconds =       0.03 minutes
	total time  =          1 seconds =       0.02 minutes
Total time:
	user time   =      13.53 seconds =       0.23 minutes
	system time =       4.05 seconds =       0.07 minutes
	total time  =          2 seconds =       0.03 minutes

    Psi4 stopped on: Sunday, 10 August 2025 05:35PM
    Psi4 wall time for execution: 0:00:01.71

*** Psi4 exiting successfully. Buy a developer a beer!
