                               Psi4 1.9.1 release

  ==> Input File <==

--------------------------------------------------------------------------
molecule {
-1 2
O           0.000000           0.000000           0.000000
O           0.000000           0.000000           0.885939
}

set {
basis              cc-pvtz
reference          uks
maxiter            500
DAMPING_PERCENTAGE 1
E_CONVERGENCE      1.0E-8
D_CONVERGENCE      1.0E-8
DIIS_MAX_VECS      400
MBIS_MAXITER       8000
guess              read
}

E, wfn = energy('b3lyp', restart_file='last_wfn', return_wfn=True)
properties('b3lyp','MBIS_CHARGES', wfn=wfn)
wfn.to_file('last_wfn')
--------------------------------------------------------------------------

    Molecular point group: d2h
  Charge       = -1
  Multiplicity = 2
  Basis Set: CC-PVTZ
    Blend: CC-PVTZ
  Basis Set: (CC-PVTZ AUX)
    Blend: CC-PVTZ-JKFIT
  @DF-UKS Final Energy:  -149.85975948852553
    Total Energy =                       -149.8597594885255262
 Dipole X            :          0.0000000            0.0000000            0.0000000
 Dipole Y            :          0.0000000            0.0000000            0.0000000
 Dipole Z            :          0.0000000            0.0000000            0.0000000
 Magnitude           :                                                    0.0000000
    Molecular point group: d2h

    Geometry (in Angstrom), charge = -1, multiplicity = 2:

       Center              X                  Y                   Z               Mass
    ------------   -----------------  -----------------  -----------------  -----------------
         O            0.000000000000     0.000000000000    -0.442969500000    15.994914619570
         O            0.000000000000     0.000000000000     0.442969500000    15.994914619570

  Charge       = -1
  Multiplicity = 2
  Basis Set: CC-PVTZ
    Blend: CC-PVTZ
  Basis Set: (CC-PVTZ AUX)
    Blend: CC-PVTZ-JKFIT

    Orbital Energies [Eh]
    ---------------------

    Alpha Occupied:

       1Ag   -18.782124     1B1u  -18.777721     2Ag    -1.192372
       1B2u   -0.309387     2B1u   -0.304064     1B3u   -0.270475
       3Ag    -0.186440     1B3g    0.260517     1B2g    0.299392

    Alpha Virtual:

       3B1u    0.631346     2B2u    0.771508     2B3u    0.792158
       4Ag     0.811433     2B3g    0.965194     2B2g    0.988029
       5Ag     1.029320     4B1u    1.406532     1B1g    1.531448
       6Ag     1.531783     5B1u    1.585726     3B2u    1.931264
       3B3u    1.961032     1Au     2.151033     6B1u    2.151373
       7Ag     2.516707     3B3g    2.634992     3B2g    2.660737
       7B1u    3.079074     4B2u    3.799813     4B3u    3.833988
       8Ag     4.272150     4B3g    4.398316     4B2g    4.434556
       8B1u    4.791725     2B1g    5.001476     9Ag     5.001915
       5B2u    5.056149     5B3u    5.056168     6B2u    5.335819
       6B3u    5.365468     5B3g    5.832762     5B2g    5.832776
      10Ag     5.903010     6B3g    6.330557     6B2g    6.359745
      11Ag     6.447327     3B1g    6.447361     9B1u    6.614767
       2Au     6.615782    10B1u    6.784588    12Ag     6.956516
       3Au     7.096683    11B1u    7.097526     7B2u    7.296503
       7B3u    7.328994    12B1u    8.439571     7B3g    9.342189
       7B2g    9.374315    13Ag     9.752711    13B1u   25.663950

    Beta Occupied:

       1Ag   -18.769597     1B1u  -18.765069     2Ag    -1.174553
       2B1u   -0.264317     1B3u   -0.259894     1B2u   -0.238739
       3Ag    -0.162700     1B2g    0.313132

    Beta Virtual:

       1B3g    0.418902     3B1u    0.638796     2B2u    0.795862
       2B3u    0.796034     4Ag     0.816674     2B2g    0.995805
       2B3g    1.016309     5Ag     1.042402     4B1u    1.424690
       1B1g    1.549702     6Ag     1.550781     5B1u    1.607962
       3B3u    1.964498     3B2u    1.967464     1Au     2.183131
       6B1u    2.184770     7Ag     2.526707     3B2g    2.665701
       3B3g    2.671368     7B1u    3.093646     4B3u    3.843561
       4B2u    3.852472     8Ag     4.284104     4B2g    4.445112
       4B3g    4.453757     8B1u    4.814441     2B1g    5.016673
       9Ag     5.017622     5B3u    5.083584     5B2u    5.083737
       6B2u    5.367971     6B3u    5.369559     5B2g    5.867455
       5B3g    5.867660    10Ag     5.916561     6B2g    6.364186
       6B3g    6.370166     3B1g    6.491612    11Ag     6.494242
       2Au     6.660888     9B1u    6.663582    10B1u    6.801809
      12Ag     6.976135     3Au     7.121598    11B1u    7.122900
       7B3u    7.333516     7B2u    7.334374    12B1u    8.454677
       7B2g    9.379954     7B3g    9.381422    13Ag     9.770730
      13B1u   25.681128

    Final Occupation by Irrep:
             Ag   B1g   B2g   B3g    Au   B1u   B2u   B3u
    DOCC [     3,    0,    1,    0,    0,    2,    1,    1 ]
    SOCC [     0,    0,    0,    1,    0,    0,    0,    0 ]
    NA   [     3,    0,    1,    1,    0,    2,    1,    1 ]
    NB   [     3,    0,    1,    0,    0,    2,    1,    1 ]

  @DF-UKS Final Energy:  -149.85975948875927

   => Energetics <=

    Nuclear Repulsion Energy =             38.2276223113329436
    One-Electron Energy =                -287.2390115023272301
    Two-Electron Energy =                 113.5888451463984836
    DFT Exchange-Correlation Energy =     -14.4372154441634475
    Empirical Dispersion Energy =           0.0000000000000000
    VV10 Nonlocal Energy =                  0.0000000000000000
    Total Energy =                       -149.8597594887592663

  UHF NO Occupations:
  HONO-2 :    2B1u 1.9997862
  HONO-1 :    1B2u 1.9996168
  HONO-0 :    1B3g 1.0000000
  LUNO+0 :    2B2u 0.0003832
  LUNO+1 :    3B1u 0.0002138
  LUNO+2 :    4 Ag 0.0001148
  LUNO+3 :    2B2g 0.0000577

Computation Completed

Properties will be evaluated at   0.000000,   0.000000,   0.000000 [a0]

Properties computed using the B3LYP density matrix

 Multipole Moments:

 ------------------------------------------------------------------------------------
     Multipole            Electronic (a.u.)      Nuclear  (a.u.)        Total (a.u.)
 ------------------------------------------------------------------------------------

 L = 1.  Multiply by 2.5417464519 to convert [e a0] to [Debye]
 Dipole X            :          0.0000000            0.0000000            0.0000000
 Dipole Y            :          0.0000000            0.0000000            0.0000000
 Dipole Z            :          0.0000000            0.0000000            0.0000000
 Magnitude           :                                                    0.0000000

 L = 2.  Multiply by 1.3450342976 to convert [e a0^2] to [Debye ang]
 Quadrupole XX       :         -9.2261610            0.0000000           -9.2261610
 Quadrupole XY       :          0.0000000            0.0000000            0.0000000
 Quadrupole XZ       :          0.0000000            0.0000000            0.0000000
 Quadrupole YY       :         -8.2058422            0.0000000           -8.2058422
 Quadrupole YZ       :          0.0000000            0.0000000            0.0000000
 Quadrupole ZZ       :        -22.5803332           11.2115425          -11.3687907
 Traceless XX        :          4.1112845           -3.7371808            0.3741036
 Traceless YY        :          5.1316032           -3.7371808            1.3944224
 Traceless ZZ        :         -9.2428877            7.4743616           -1.7685261

 ------------------------------------------------------------------------------------
  ==> Computing MBIS Charges <==

  Electron Count from Grid (Expected Number): 17.00000 (17.00000)
  Difference: -0.00000

  MBIS Charges: (a.u.)
   Center  Symbol  Z      Pop.       Charge
      1       O    8    8.500000   -0.500000
      2       O    8    8.500000   -0.500000

  MBIS Dipoles: [e a0]
   Center  Symbol  Z        X           Y           Z
      1       O    8   -0.000000   -0.000000    0.382183
      2       O    8   -0.000000    0.000000   -0.382183

  MBIS Quadrupoles: [e a0^2]
   Center  Symbol  Z      XX        XY        XZ        YY        YZ        ZZ
      1       O    8   -4.6131   -0.0000   -0.0000   -4.1029   -0.0000   -4.6942
      2       O    8   -4.6131   -0.0000   -0.0000   -4.1029    0.0000   -4.6942

  MBIS Octupoles: [e a0^3]
   Center  Symbol  Z      XXX       XXY       XXZ       XYY       XYZ       XZZ       YYY       YYZ       YZZ       ZZZ
      1       O    8   -0.0000   -0.0000    0.8390    0.0000   -0.0000    0.0000    0.0000    0.5872    0.0000    0.3402
      2       O    8   -0.0000   -0.0000   -0.8390    0.0000    0.0000    0.0000    0.0000   -0.5872   -0.0000   -0.3402

  MBIS Radial Moments:
   Center  Symbol  Z      [a0^2]      [a0^3]      [a0^4]
      1       O    8   13.410192   27.161840   66.116076
      2       O    8   13.410192   27.161840   66.116076

  MBIS Valence Widths: [a0]
   Center  Symbol  Z     Width
      1       O    8    0.402687
      2       O    8    0.402687

*** tstop() called on Mac.lan at Sun Aug 10 17:27:30 2025
Module time:
	user time   =       3.67 seconds =       0.06 minutes
	system time =       1.90 seconds =       0.03 minutes
	total time  =          0 seconds =       0.00 minutes
Total time:
	user time   =      16.74 seconds =       0.28 minutes
	system time =       4.28 seconds =       0.07 minutes
	total time  =          2 seconds =       0.03 minutes

    Psi4 stopped on: Sunday, 10 August 2025 05:27PM
    Psi4 wall time for execution: 0:00:02.04

*** Psi4 exiting successfully. Buy a developer a beer!
