                               Psi4 1.9.1 release

  ==> Input File <==

--------------------------------------------------------------------------
molecule {
-1 2
N           0.000000           0.000000           0.000000
N           0.000000           0.000000           0.750705
}

set {
basis              cc-pvtz
reference          uks
maxiter            500
DAMPING_PERCENTAGE 1
E_CONVERGENCE      1.0E-8
D_CONVERGENCE      1.0E-8
DIIS_MAX_VECS      400
MBIS_MAXITER       8000
guess              read
}

E, wfn = energy('b3lyp', restart_file='last_wfn', return_wfn=True)
properties('b3lyp','MBIS_CHARGES', wfn=wfn)
wfn.to_file('last_wfn')
--------------------------------------------------------------------------

    Molecular point group: d2h
  Charge       = -1
  Multiplicity = 2
  Basis Set: CC-PVTZ
    Blend: CC-PVTZ
  Basis Set: (CC-PVTZ AUX)
    Blend: CC-PVTZ-JKFIT
  @DF-UKS Final Energy:  -108.47114042718525
    Total Energy =                       -108.4711404271852473
 Dipole X            :          0.0000000            0.0000000            0.0000000
 Dipole Y            :          0.0000000            0.0000000            0.0000000
 Dipole Z            :          0.0000000            0.0000000            0.0000000
 Magnitude           :                                                    0.0000000
    Molecular point group: d2h

    Geometry (in Angstrom), charge = -1, multiplicity = 2:

       Center              X                  Y                   Z               Mass
    ------------   -----------------  -----------------  -----------------  -----------------
         N            0.000000000000     0.000000000000    -0.375352500000    14.003074004430
         N            0.000000000000     0.000000000000     0.375352500000    14.003074004430

  Charge       = -1
  Multiplicity = 2
  Basis Set: CC-PVTZ
    Blend: CC-PVTZ
  Basis Set: (CC-PVTZ AUX)
    Blend: CC-PVTZ-JKFIT

    Orbital Energies [Eh]
    ---------------------

    Alpha Occupied:

       1Ag   -13.981262     1B1u  -13.928795     2Ag    -0.901354
       1B3u   -0.287199     1B2u   -0.283055     2B1u   -0.113409
       3Ag    -0.110948     1B2g    0.395299

    Alpha Virtual:

       1B3g    0.470909     3B1u    0.558111     2B3u    0.612628
       2B2u    0.613419     4Ag     0.640197     5Ag     0.845791
       2B2g    0.901571     2B3g    0.921315     4B1u    1.140235
       1B1g    1.164193     6Ag     1.165186     3B3u    1.649001
       3B2u    1.652159     1Au     1.704648     5B1u    1.706690
       6B1u    1.708154     7Ag     1.850546     3B2g    2.012816
       3B3g    2.020172     4B2u    2.890657     4B3u    2.895232
       7B1u    3.396315     8Ag     3.570174     4B2g    3.789610
       4B3g    3.792959     5B3u    3.818506     5B2u    3.818543
       8B1u    3.921150     2B1g    3.951538     9Ag     3.952178
       6B3u    4.382788     6B2u    4.385047    10Ag     4.587728
       2Au     4.695143     9B1u    4.696494     5B2g    4.760170
       5B3g    4.761346     6B2g    4.768825     6B3g    4.768893
       3B1g    4.868766    11Ag     4.869692    12Ag     5.089823
      10B1u    5.635401     7B2u    6.062929     7B3u    6.065438
       3Au     6.370699    11B1u    6.371443    12B1u    8.103571
       7B2g    8.245495     7B3g    8.247093    13Ag     9.289000
      13B1u   28.012699

    Beta Occupied:

       1Ag   -13.977276     1B1u  -13.924682     2Ag    -0.895381
       1B2u   -0.279103     1B3u   -0.255292     3Ag    -0.095119
       2B1u   -0.088696

    Beta Virtual:

       1B3g    0.480681     1B2g    0.503239     3B1u    0.566635
       2B2u    0.617482     2B3u    0.637256     4Ag     0.649095
       5Ag     0.855216     2B3g    0.928906     2B2g    0.949193
       4B1u    1.163651     1B1g    1.177673     6Ag     1.178045
       3B2u    1.655352     3B3u    1.679560     5B1u    1.715836
       1Au     1.735774     6B1u    1.739328     7Ag     1.854182
       3B3g    2.024849     3B2g    2.044333     4B2u    2.893842
       4B3u    2.914972     7B1u    3.403221     8Ag     3.577570
       4B3g    3.798258     4B2g    3.820782     5B2u    3.831019
       5B3u    3.831027     8B1u    3.938713     2B1g    3.960818
       9Ag     3.961126     6B2u    4.386890     6B3u    4.406502
      10Ag     4.596129     9B1u    4.720437     2Au     4.720521
       5B3g    4.763013     5B2g    4.782722     6B3g    4.790851
       6B2g    4.792191     3B1g    4.889268    11Ag     4.889696
      12Ag     5.095248    10B1u    5.644290     7B2u    6.064283
       7B3u    6.084706     3Au     6.387039    11B1u    6.387129
      12B1u    8.108546     7B3g    8.249927     7B2g    8.270160
      13Ag     9.299655    13B1u   28.018470

    Final Occupation by Irrep:
             Ag   B1g   B2g   B3g    Au   B1u   B2u   B3u
    DOCC [     3,    0,    0,    0,    0,    2,    1,    1 ]
    SOCC [     0,    0,    1,    0,    0,    0,    0,    0 ]
    NA   [     3,    0,    1,    0,    0,    2,    1,    1 ]
    NB   [     3,    0,    0,    0,    0,    2,    1,    1 ]

  @DF-UKS Final Energy:  -108.47114042689003

   => Energetics <=

    Nuclear Repulsion Energy =             34.5404430806108991
    One-Electron Energy =                -218.7779432479717627
    Two-Electron Energy =                  87.6335857436125849
    DFT Exchange-Correlation Energy =     -11.8672260031417665
    Empirical Dispersion Energy =           0.0000000000000000
    VV10 Nonlocal Energy =                  0.0000000000000000
    Total Energy =                       -108.4711404268900310

  UHF NO Occupations:
  HONO-2 :    1B3u 1.9999099
  HONO-1 :    2B1u 1.9998627
  HONO-0 :    1B2g 1.0000000
  LUNO+0 :    3B1u 0.0001373
  LUNO+1 :    2B3u 0.0000901
  LUNO+2 :    4 Ag 0.0000780
  LUNO+3 :    2B2u 0.0000046

Computation Completed

Properties will be evaluated at   0.000000,   0.000000,   0.000000 [a0]

Properties computed using the B3LYP density matrix

 Multipole Moments:

 ------------------------------------------------------------------------------------
     Multipole            Electronic (a.u.)      Nuclear  (a.u.)        Total (a.u.)
 ------------------------------------------------------------------------------------

 L = 1.  Multiply by 2.5417464519 to convert [e a0] to [Debye]
 Dipole X            :          0.0000000            0.0000000            0.0000000
 Dipole Y            :          0.0000000            0.0000000            0.0000000
 Dipole Z            :          0.0000000            0.0000000            0.0000000
 Magnitude           :                                                    0.0000000

 L = 2.  Multiply by 1.3450342976 to convert [e a0^2] to [Debye ang]
 Quadrupole XX       :        -10.2673881            0.0000000          -10.2673881
 Quadrupole XY       :          0.0000000            0.0000000            0.0000000
 Quadrupole XZ       :          0.0000000            0.0000000            0.0000000
 Quadrupole YY       :         -8.1328767            0.0000000           -8.1328767
 Quadrupole YZ       :          0.0000000            0.0000000            0.0000000
 Quadrupole ZZ       :        -19.7376079            7.0437575          -12.6938504
 Traceless XX        :          2.4452361           -2.3479192            0.0973170
 Traceless YY        :          4.5797475           -2.3479192            2.2318283
 Traceless ZZ        :         -7.0249836            4.6958383           -2.3291453

 ------------------------------------------------------------------------------------
  ==> Computing MBIS Charges <==

  Electron Count from Grid (Expected Number): 15.00000 (15.00000)
  Difference:  0.00000

  MBIS Charges: (a.u.)
   Center  Symbol  Z      Pop.       Charge
      1       N    7    7.500000   -0.500000
      2       N    7    7.500000   -0.500000

  MBIS Dipoles: [e a0]
   Center  Symbol  Z        X           Y           Z
      1       N    7    0.000000    0.000000    0.313479
      2       N    7   -0.000000   -0.000000   -0.313479

  MBIS Quadrupoles: [e a0^2]
   Center  Symbol  Z      XX        XY        XZ        YY        YZ        ZZ
      1       N    7   -5.1337   -0.0000   -0.0000   -4.0664   -0.0000   -5.6507
      2       N    7   -5.1337   -0.0000   -0.0000   -4.0664    0.0000   -5.6507

  MBIS Octupoles: [e a0^3]
   Center  Symbol  Z      XXX       XXY       XXZ       XYY       XYZ       XZZ       YYY       YYZ       YZZ       ZZZ
      1       N    7    0.0000    0.0000    1.2489   -0.0000    0.0000   -0.0000    0.0000    0.5590    0.0000    1.1069
      2       N    7   -0.0000    0.0000   -1.2489   -0.0000   -0.0000    0.0000   -0.0000   -0.5590    0.0000   -1.1069

  MBIS Radial Moments:
   Center  Symbol  Z      [a0^2]      [a0^3]      [a0^4]
      1       N    7   14.850785   34.838783   98.522375
      2       N    7   14.850785   34.838783   98.522375

  MBIS Valence Widths: [a0]
   Center  Symbol  Z     Width
      1       N    7    0.456980
      2       N    7    0.456980

*** tstop() called on Mac.lan at Sun Aug 10 17:32:47 2025
Module time:
	user time   =       3.90 seconds =       0.07 minutes
	system time =       1.70 seconds =       0.03 minutes
	total time  =          1 seconds =       0.02 minutes
Total time:
	user time   =      17.00 seconds =       0.28 minutes
	system time =       3.89 seconds =       0.06 minutes
	total time  =          2 seconds =       0.03 minutes

    Psi4 stopped on: Sunday, 10 August 2025 05:32PM
    Psi4 wall time for execution: 0:00:02.03

*** Psi4 exiting successfully. Buy a developer a beer!
