                               Psi4 1.9.1 release

  ==> Input File <==

--------------------------------------------------------------------------
molecule {
-1 3
O           0.000000           0.000000           0.000000
N           0.000000           0.000000           1.575878
}

set {
basis              cc-pvtz
reference          uks
maxiter            500
DAMPING_PERCENTAGE 1
E_CONVERGENCE      1.0E-8
D_CONVERGENCE      1.0E-8
DIIS_MAX_VECS      400
MBIS_MAXITER       8000
guess              read
}

E, wfn = energy('b3lyp', restart_file='last_wfn', return_wfn=True)
properties('b3lyp','MBIS_CHARGES', wfn=wfn)
wfn.to_file('last_wfn')
--------------------------------------------------------------------------

    Molecular point group: c2v
  Charge       = -1
  Multiplicity = 3
  Basis Set: CC-PVTZ
    Blend: CC-PVTZ
  Basis Set: (CC-PVTZ AUX)
    Blend: CC-PVTZ-JKFIT
  @DF-UKS Final Energy:  -129.87844590177411
    Total Energy =                       -129.8784459017741142
 Dipole X            :          0.0000000            0.0000000            0.0000000
 Dipole Y            :          0.0000000            0.0000000            0.0000000
 Dipole Z            :          0.0362117           -0.0059752            0.0302365
 Magnitude           :                                                    0.0302365
    Molecular point group: c2v

    Geometry (in Angstrom), charge = -1, multiplicity = 3:

       Center              X                  Y                   Z               Mass
    ------------   -----------------  -----------------  -----------------  -----------------
         O            0.000000000000     0.000000000000    -0.735620528848    15.994914619570
         N            0.000000000000     0.000000000000     0.840257471152    14.003074004430

  Charge       = -1
  Multiplicity = 3
  Basis Set: CC-PVTZ
    Blend: CC-PVTZ
  Basis Set: (CC-PVTZ AUX)
    Blend: CC-PVTZ-JKFIT

    Orbital Energies [Eh]
    ---------------------

    Alpha Occupied:

       1A1   -18.844346     2A1   -14.091558     3A1    -0.647174
       4A1    -0.405916     5A1    -0.073765     1B1    -0.068447
       1B2    -0.068447     2B2     0.050579     2B1     0.050579

    Alpha Virtual:

       6A1     0.326651     7A1     0.691098     3B2     0.717299
       3B1     0.717299     8A1     0.797033     9A1     0.891489
       4B2     0.899378     4B1     0.899378    10A1     1.288368
       1A2     1.288369     5B1     1.321302     5B2     1.321302
      11A1     1.411545    12A1     1.767719     2A2     1.805005
      13A1     1.805005     6B2     2.102003     6B1     2.102003
      14A1     2.336230     7B2     3.094749     7B1     3.094749
      15A1     3.351137     8B2     3.837508     8B1     3.837508
      16A1     3.913416    17A1     4.146501     3A2     4.146502
       9B1     4.149022     9B2     4.149022    10B1     4.269068
      10B2     4.269068    18A1     4.577548    19A1     4.673256
       4A2     4.673260    11B2     4.829042    11B1     4.829042
      20A1     5.322049    12B2     5.441508    12B1     5.441508
      21A1     5.483537    22A1     5.489748     5A2     5.489749
      13B2     5.821077    13B1     5.821077    23A1     6.325993
       6A2     6.506257    24A1     6.506302    14B2     6.805009
      14B1     6.805009    25A1     7.575149    26A1     8.325719

    Beta Occupied:

       1A1   -18.828935     2A1   -14.059976     3A1    -0.604161
       4A1    -0.317132     5A1    -0.049745     1B2     0.008580
       1B1     0.008580

    Beta Virtual:

       2B2     0.217845     2B1     0.217845     6A1     0.358502
       7A1     0.707079     3B2     0.776204     3B1     0.776204
       8A1     0.823996     9A1     0.906189     4B2     0.925357
       4B1     0.925357     5B1     1.349452     5B2     1.349452
      10A1     1.352899     1A2     1.352899    11A1     1.430986
      12A1     1.796251    13A1     1.835428     2A2     1.835428
       6B2     2.126068     6B1     2.126068    14A1     2.351825
       7B2     3.181384     7B1     3.181384    15A1     3.370908
       8B2     3.878390     8B1     3.878390    16A1     3.948113
      17A1     4.207577     3A2     4.207578     9B1     4.243548
       9B2     4.243548    10B1     4.311756    10B2     4.311756
      18A1     4.606995    19A1     4.801013     4A2     4.801017
      11B2     4.897052    11B1     4.897052    20A1     5.351402
      12B2     5.479743    12B1     5.479743    21A1     5.515591
       5A2     5.515592    22A1     5.541325    13B2     5.843041
      13B1     5.843041    23A1     6.342509     6A2     6.563835
      24A1     6.563878    14B2     6.834542    14B1     6.834542
      25A1     7.596359    26A1     8.355133

    Final Occupation by Irrep:
             A1    A2    B1    B2
    DOCC [     5,    0,    1,    1 ]
    SOCC [     0,    0,    1,    1 ]
    NA   [     5,    0,    2,    2 ]
    NB   [     5,    0,    1,    1 ]

  @DF-UKS Final Energy:  -129.87844590061488

   => Energetics <=

    Nuclear Repulsion Energy =             18.8047068348692008
    One-Electron Energy =                -220.3970133963311753
    Two-Electron Energy =                  84.2673800387862570
    DFT Exchange-Correlation Energy =     -12.5535193779391463
    Empirical Dispersion Energy =           0.0000000000000000
    VV10 Nonlocal Energy =                  0.0000000000000000
    Total Energy =                       -129.8784459006148779

  UHF NO Occupations:
  HONO-2 :    1 B2 1.9982572
  HONO-1 :    2 B1 1.0000000
  HONO-0 :    2 B2 1.0000000
  LUNO+0 :    3 B1 0.0017428
  LUNO+1 :    3 B2 0.0017428
  LUNO+2 :    6 A1 0.0015081
  LUNO+3 :    7 A1 0.0003634

Computation Completed

Properties will be evaluated at   0.000000,   0.000000,   0.000000 [a0]

Properties computed using the B3LYP density matrix

 Multipole Moments:

 ------------------------------------------------------------------------------------
     Multipole            Electronic (a.u.)      Nuclear  (a.u.)        Total (a.u.)
 ------------------------------------------------------------------------------------

 L = 1.  Multiply by 2.5417464519 to convert [e a0] to [Debye]
 Dipole X            :          0.0000000            0.0000000            0.0000000
 Dipole Y            :          0.0000000            0.0000000            0.0000000
 Dipole Z            :          0.0362117           -0.0059752            0.0302365
 Magnitude           :                                                    0.0302365

 L = 2.  Multiply by 1.3450342976 to convert [e a0^2] to [Debye ang]
 Quadrupole XX       :         -9.8353629            0.0000000           -9.8353629
 Quadrupole XY       :          0.0000000            0.0000000            0.0000000
 Quadrupole XZ       :          0.0000000            0.0000000            0.0000000
 Quadrupole YY       :         -9.8353629            0.0000000           -9.8353629
 Quadrupole YZ       :          0.0000000            0.0000000            0.0000000
 Quadrupole ZZ       :        -45.5428662           33.1085163          -12.4343499
 Traceless XX        :         11.9025011          -11.0361721            0.8663290
 Traceless YY        :         11.9025011          -11.0361721            0.8663290
 Traceless ZZ        :        -23.8050022           22.0723442           -1.7326580

 ------------------------------------------------------------------------------------
  ==> Computing MBIS Charges <==

  Electron Count from Grid (Expected Number): 16.00000 (16.00000)
  Difference: -0.00000

  MBIS Charges: (a.u.)
   Center  Symbol  Z      Pop.       Charge
      1       O    8    8.576922   -0.576922
      2       N    7    7.423077   -0.423077

  MBIS Dipoles: [e a0]
   Center  Symbol  Z        X           Y           Z
      1       O    8   -0.000000    0.000000    0.080228
      2       N    7   -0.000000   -0.000000   -0.180198

  MBIS Quadrupoles: [e a0^2]
   Center  Symbol  Z      XX        XY        XZ        YY        YZ        ZZ
      1       O    8   -4.7538    0.0000    0.0000   -4.7538   -0.0000   -4.4810
      2       N    7   -5.0816   -0.0000    0.0000   -5.0816    0.0000   -4.9765

  MBIS Octupoles: [e a0^3]
   Center  Symbol  Z      XXX       XXY       XXZ       XYY       XYZ       XZZ       YYY       YYZ       YZZ       ZZZ
      1       O    8    0.0000    0.0000    0.0708   -0.0000   -0.0000   -0.0000   -0.0000    0.0708   -0.0000   -0.1961
      2       N    7   -0.0000   -0.0000   -0.1023   -0.0000    0.0000    0.0000   -0.0000   -0.1023   -0.0000    0.2397

  MBIS Radial Moments:
   Center  Symbol  Z      [a0^2]      [a0^3]      [a0^4]
      1       O    8   13.988531   28.227518   67.859266
      2       N    7   15.139669   34.431287   92.741539

  MBIS Valence Widths: [a0]
   Center  Symbol  Z     Width
      1       O    8    0.411642
      2       N    7    0.471399

*** tstop() called on Mac.lan at Sun Aug 10 17:47:16 2025
Module time:
	user time   =       3.41 seconds =       0.06 minutes
	system time =       2.43 seconds =       0.04 minutes
	total time  =          0 seconds =       0.00 minutes
Total time:
	user time   =      18.88 seconds =       0.31 minutes
	system time =       5.06 seconds =       0.08 minutes
	total time  =          2 seconds =       0.03 minutes

    Psi4 stopped on: Sunday, 10 August 2025 05:47PM
    Psi4 wall time for execution: 0:00:02.31

*** Psi4 exiting successfully. Buy a developer a beer!
