                               Psi4 1.9.1 release

  ==> Input File <==

--------------------------------------------------------------------------
molecule {
-1 2
N           0.000000           0.000000           0.000000
N           0.000000           0.000000           0.834386
}

set {
basis              cc-pvtz
reference          uks
maxiter            500
DAMPING_PERCENTAGE 1
E_CONVERGENCE      1.0E-8
D_CONVERGENCE      1.0E-8
DIIS_MAX_VECS      400
MBIS_MAXITER       8000
guess              read
}

E, wfn = energy('b3lyp', restart_file='last_wfn', return_wfn=True)
properties('b3lyp','MBIS_CHARGES', wfn=wfn)
wfn.to_file('last_wfn')
--------------------------------------------------------------------------

    Molecular point group: d2h
  Charge       = -1
  Multiplicity = 2
  Basis Set: CC-PVTZ
    Blend: CC-PVTZ
  Basis Set: (CC-PVTZ AUX)
    Blend: CC-PVTZ-JKFIT
  @DF-UKS Final Energy:  -108.96538472281917
    Total Energy =                       -108.9653847228191665
 Dipole X            :          0.0000000            0.0000000            0.0000000
 Dipole Y            :          0.0000000            0.0000000            0.0000000
 Dipole Z            :          0.0000000           -0.0000000           -0.0000000
 Magnitude           :                                                    0.0000000
    Molecular point group: d2h

    Geometry (in Angstrom), charge = -1, multiplicity = 2:

       Center              X                  Y                   Z               Mass
    ------------   -----------------  -----------------  -----------------  -----------------
         N            0.000000000000     0.000000000000    -0.417193000000    14.003074004430
         N            0.000000000000     0.000000000000     0.417193000000    14.003074004430

  Charge       = -1
  Multiplicity = 2
  Basis Set: CC-PVTZ
    Blend: CC-PVTZ
  Basis Set: (CC-PVTZ AUX)
    Blend: CC-PVTZ-JKFIT

    Orbital Energies [Eh]
    ---------------------

    Alpha Occupied:

       1Ag   -13.958737     1B1u  -13.936564     2Ag    -0.881536
       1B3u   -0.228117     1B2u   -0.219679     2B1u   -0.133133
       3Ag    -0.097194     1B2g    0.357685

    Alpha Virtual:

       1B3g    0.437386     3B1u    0.561976     2B2u    0.636210
       2B3u    0.636356     4Ag     0.653888     5Ag     0.838085
       2B2g    0.867974     2B3g    0.888247     4B1u    1.112393
       1B1g    1.166854     6Ag     1.167906     3B3u    1.604868
       3B2u    1.608038     5B1u    1.608906     1Au     1.683877
       6B1u    1.685800     7Ag     1.899211     3B2g    2.007421
       3B3g    2.014353     4B2u    2.982706     4B3u    2.984450
       7B1u    3.072674     8Ag     3.518953     4B2g    3.715031
       4B3g    3.719295     8B1u    3.774301     5B3u    3.844771
       5B2u    3.844831     2B1g    3.934989     9Ag     3.935747
       6B3u    4.288543     6B2u    4.290367    10Ag     4.551228
       5B2g    4.672630     5B3g    4.675242     6B2g    4.682793
       6B3g    4.682917     2Au     4.785702     9B1u    4.787347
       3B1g    4.814384    11Ag     4.815737    12Ag     5.126932
      10B1u    5.546907     7B2u    5.814143     7B3u    5.816236
       3Au     6.030456    11B1u    6.031385    12B1u    7.316529
       7B2g    7.928343     7B3g    7.929756    13Ag     8.954468
      13B1u   25.905941

    Beta Occupied:

       1Ag   -13.952921     1B1u  -13.930629     2Ag    -0.873033
       1B2u   -0.214272     1B3u   -0.186851     2B1u   -0.105073
       3Ag    -0.079433

    Beta Virtual:

       1B3g    0.447080     1B2g    0.471891     3B1u    0.569455
       2B2u    0.640012     2B3u    0.659325     4Ag     0.661154
       5Ag     0.848379     2B3g    0.896165     2B2g    0.917620
       4B1u    1.133714     1B1g    1.181741     6Ag     1.182085
       3B2u    1.611261     5B1u    1.621492     3B3u    1.636419
       1Au     1.715258     6B1u    1.716182     7Ag     1.904007
       3B3g    2.018995     3B2g    2.039617     4B2u    2.987053
       4B3u    3.010756     7B1u    3.081380     8Ag     3.527107
       4B3g    3.725688     4B2g    3.751111     8B1u    3.793884
       5B2u    3.861127     5B3u    3.861137     2B1g    3.945813
       9Ag     3.946170     6B2u    4.292920     6B3u    4.315102
      10Ag     4.560885     5B3g    4.677246     5B2g    4.699187
       6B3g    4.708434     6B2g    4.709301     9B1u    4.815847
       2Au     4.816006     3B1g    4.841045    11Ag     4.841438
      12Ag     5.134681    10B1u    5.557776     7B2u    5.816063
       7B3u    5.839619     3Au     6.049327    11B1u    6.049484
      12B1u    7.324047     7B3g    7.933179     7B2g    7.956641
      13Ag     8.967232    13B1u   25.913694

    Final Occupation by Irrep:
             Ag   B1g   B2g   B3g    Au   B1u   B2u   B3u
    DOCC [     3,    0,    0,    0,    0,    2,    1,    1 ]
    SOCC [     0,    0,    1,    0,    0,    0,    0,    0 ]
    NA   [     3,    0,    1,    0,    0,    2,    1,    1 ]
    NB   [     3,    0,    0,    0,    0,    2,    1,    1 ]

  @DF-UKS Final Energy:  -108.96538472276217

   => Energetics <=

    Nuclear Repulsion Energy =             31.0763643239819523
    One-Electron Energy =                -213.2303805905889931
    Two-Electron Energy =                  84.9031621451983654
    DFT Exchange-Correlation Energy =     -11.7145306013534807
    Empirical Dispersion Energy =           0.0000000000000000
    VV10 Nonlocal Energy =                  0.0000000000000000
    Total Energy =                       -108.9653847227621668

  UHF NO Occupations:
  HONO-2 :    1B3u 1.9998655
  HONO-1 :    2B1u 1.9998294
  HONO-0 :    1B2g 1.0000000
  LUNO+0 :    3B1u 0.0001706
  LUNO+1 :    2B3u 0.0001345
  LUNO+2 :    4 Ag 0.0000920
  LUNO+3 :    2B2u 0.0000071

Computation Completed

Properties will be evaluated at   0.000000,   0.000000,   0.000000 [a0]

Properties computed using the B3LYP density matrix

 Multipole Moments:

 ------------------------------------------------------------------------------------
     Multipole            Electronic (a.u.)      Nuclear  (a.u.)        Total (a.u.)
 ------------------------------------------------------------------------------------

 L = 1.  Multiply by 2.5417464519 to convert [e a0] to [Debye]
 Dipole X            :          0.0000000            0.0000000            0.0000000
 Dipole Y            :          0.0000000            0.0000000            0.0000000
 Dipole Z            :          0.0000000           -0.0000000           -0.0000000
 Magnitude           :                                                    0.0000000

 L = 2.  Multiply by 1.3450342976 to convert [e a0^2] to [Debye ang]
 Quadrupole XX       :        -10.1727126            0.0000000          -10.1727126
 Quadrupole XY       :          0.0000000            0.0000000            0.0000000
 Quadrupole XZ       :          0.0000000            0.0000000            0.0000000
 Quadrupole YY       :         -8.3583687            0.0000000           -8.3583687
 Quadrupole YZ       :          0.0000000            0.0000000            0.0000000
 Quadrupole ZZ       :        -21.3387926            8.7016136          -12.6371790
 Traceless XX        :          3.1172454           -2.9005379            0.2167075
 Traceless YY        :          4.9315893           -2.9005379            2.0310514
 Traceless ZZ        :         -8.0488347            5.8010758           -2.2477589

 ------------------------------------------------------------------------------------
  ==> Computing MBIS Charges <==

  Electron Count from Grid (Expected Number): 15.00000 (15.00000)
  Difference:  0.00000

  MBIS Charges: (a.u.)
   Center  Symbol  Z      Pop.       Charge
      1       N    7    7.500000   -0.500000
      2       N    7    7.500000   -0.500000

  MBIS Dipoles: [e a0]
   Center  Symbol  Z        X           Y           Z
      1       N    7   -0.000000   -0.000000    0.302415
      2       N    7    0.000000   -0.000000   -0.302415

  MBIS Quadrupoles: [e a0^2]
   Center  Symbol  Z      XX        XY        XZ        YY        YZ        ZZ
      1       N    7   -5.0864   -0.0000    0.0000   -4.1792    0.0000   -5.5310
      2       N    7   -5.0864   -0.0000   -0.0000   -4.1792   -0.0000   -5.5310

  MBIS Octupoles: [e a0^3]
   Center  Symbol  Z      XXX       XXY       XXZ       XYY       XYZ       XZZ       YYY       YYZ       YZZ       ZZZ
      1       N    7   -0.0000   -0.0000    1.0531   -0.0000    0.0000   -0.0000   -0.0000    0.4879   -0.0000    0.9304
      2       N    7   -0.0000   -0.0000   -1.0531   -0.0000   -0.0000   -0.0000   -0.0000   -0.4879   -0.0000   -0.9304

  MBIS Radial Moments:
   Center  Symbol  Z      [a0^2]      [a0^3]      [a0^4]
      1       N    7   14.796522   34.076387   94.174457
      2       N    7   14.796522   34.076387   94.174457

  MBIS Valence Widths: [a0]
   Center  Symbol  Z     Width
      1       N    7    0.458026
      2       N    7    0.458026

*** tstop() called on Mac.lan at Sun Aug 10 17:32:39 2025
Module time:
	user time   =       4.44 seconds =       0.07 minutes
	system time =       1.71 seconds =       0.03 minutes
	total time  =          0 seconds =       0.00 minutes
Total time:
	user time   =      19.30 seconds =       0.32 minutes
	system time =       4.31 seconds =       0.07 minutes
	total time  =          2 seconds =       0.03 minutes

    Psi4 stopped on: Sunday, 10 August 2025 05:32PM
    Psi4 wall time for execution: 0:00:02.31

*** Psi4 exiting successfully. Buy a developer a beer!
