                               Psi4 1.9.1 release

  ==> Input File <==

--------------------------------------------------------------------------
molecule {
-1 1
N           0.000000           0.000000           0.000000
C           0.000000           0.000000           1.398685
}

set {
basis              cc-pvtz
reference          uks
maxiter            500
DAMPING_PERCENTAGE 1
E_CONVERGENCE      1.0E-8
D_CONVERGENCE      1.0E-8
DIIS_MAX_VECS      400
MBIS_MAXITER       8000
guess              read
}

E, wfn = energy('b3lyp', restart_file='last_wfn', return_wfn=True)
properties('b3lyp','MBIS_CHARGES', wfn=wfn)
wfn.to_file('last_wfn')
--------------------------------------------------------------------------

    Molecular point group: c2v
  Charge       = -1
  Multiplicity = 1
  Basis Set: CC-PVTZ
    Blend: CC-PVTZ
  Basis Set: (CC-PVTZ AUX)
    Blend: CC-PVTZ-JKFIT
  @DF-UKS Final Energy:   -92.81677707586704
    Total Energy =                        -92.8167770758670372
 Dipole X            :          0.0000000            0.0000000            0.0000000
 Dipole Y            :          0.0000000            0.0000000            0.0000000
 Dipole Z            :         -0.1561680            0.0018748           -0.1542932
 Magnitude           :                                                    0.1542932
    Molecular point group: c2v

    Geometry (in Angstrom), charge = -1, multiplicity = 1:

       Center              X                  Y                   Z               Mass
    ------------   -----------------  -----------------  -----------------  -----------------
         N            0.000000000000     0.000000000000    -0.645470608480    14.003074004430
         C            0.000000000000     0.000000000000     0.753214391520    12.000000000000

  Charge       = -1
  Multiplicity = 1
  Basis Set: CC-PVTZ
    Blend: CC-PVTZ
  Basis Set: (CC-PVTZ AUX)
    Blend: CC-PVTZ-JKFIT

    Orbital Energies [Eh]
    ---------------------

    Alpha Occupied:

       1A1   -14.058439     2A1    -9.952412     3A1    -0.527414
       4A1    -0.177010     5A1    -0.023607     1B2    -0.020312
       1B1    -0.020312

    Alpha Virtual:

       2B2     0.244747     2B1     0.244747     6A1     0.403399
       3B1     0.564068     3B2     0.564068     7A1     0.583372
       8A1     0.677869     9A1     0.738479     4B2     0.773883
       4B1     0.773883     1A2     0.930978    10A1     0.930978
       5B2     1.070895     5B1     1.070895    11A1     1.156964
      12A1     1.405404     2A2     1.407913    13A1     1.407913
       6B1     1.733489     6B2     1.733489    14A1     1.955062
       7B1     2.305474     7B2     2.305474    15A1     2.497585
       8B1     2.967605     8B2     2.967605     3A2     2.983111
      16A1     2.983112     9B1     2.994028     9B2     2.994028
      10B1     3.263604    10B2     3.263604     4A2     3.265157
      17A1     3.265160    18A1     3.266308    19A1     3.289372
      11B1     3.611605    11B2     3.611605    20A1     3.717611
      12B1     4.204528    12B2     4.204528     5A2     4.459531
      21A1     4.459531    22A1     4.804572     6A2     4.804585
      23A1     4.844513    13B2     4.921905    13B1     4.921905
      24A1     5.326227    14B1     5.383018    14B2     5.383018
      25A1     5.747814    26A1     9.129701

    Beta Occupied:

       1A1   -14.058439     2A1    -9.952412     3A1    -0.527414
       4A1    -0.177010     5A1    -0.023607     1B2    -0.020312
       1B1    -0.020312

    Beta Virtual:

       2B2     0.244747     2B1     0.244747     6A1     0.403399
       3B1     0.564068     3B2     0.564068     7A1     0.583372
       8A1     0.677869     9A1     0.738479     4B2     0.773883
       4B1     0.773883     1A2     0.930978    10A1     0.930978
       5B2     1.070895     5B1     1.070895    11A1     1.156964
      12A1     1.405404     2A2     1.407913    13A1     1.407913
       6B1     1.733489     6B2     1.733489    14A1     1.955062
       7B1     2.305474     7B2     2.305474    15A1     2.497585
       8B1     2.967605     8B2     2.967605     3A2     2.983111
      16A1     2.983112     9B1     2.994028     9B2     2.994028
      10B1     3.263604    10B2     3.263604     4A2     3.265157
      17A1     3.265160    18A1     3.266308    19A1     3.289372
      11B1     3.611605    11B2     3.611605    20A1     3.717611
      12B1     4.204528    12B2     4.204528     5A2     4.459531
      21A1     4.459531    22A1     4.804572     6A2     4.804585
      23A1     4.844513    13B2     4.921905    13B1     4.921905
      24A1     5.326227    14B1     5.383018    14B2     5.383018
      25A1     5.747814    26A1     9.129701

    Final Occupation by Irrep:
             A1    A2    B1    B2
    DOCC [     5,    0,    1,    1 ]
    SOCC [     0,    0,    0,    0 ]
    NA   [     5,    0,    1,    1 ]
    NB   [     5,    0,    1,    1 ]

  @DF-UKS Final Energy:   -92.81677707551481

   => Energetics <=

    Nuclear Repulsion Energy =             15.8902417972166727
    One-Electron Energy =                -160.6917726164782039
    Two-Electron Energy =                  61.9275971354318528
    DFT Exchange-Correlation Energy =      -9.9428433916851287
    Empirical Dispersion Energy =           0.0000000000000000
    VV10 Nonlocal Energy =                  0.0000000000000000
    Total Energy =                        -92.8167770755148069

  UHF NO Occupations:
  HONO-2 :    3 A1 2.0000000
  HONO-1 :    4 A1 2.0000000
  HONO-0 :    5 A1 2.0000000
  LUNO+0 :    6 A1 0.0000000
  LUNO+1 :    7 A1 0.0000000
  LUNO+2 :    8 A1 0.0000000
  LUNO+3 :    9 A1 0.0000000

Computation Completed

Properties will be evaluated at   0.000000,   0.000000,   0.000000 [a0]

Properties computed using the B3LYP density matrix

 Multipole Moments:

 ------------------------------------------------------------------------------------
     Multipole            Electronic (a.u.)      Nuclear  (a.u.)        Total (a.u.)
 ------------------------------------------------------------------------------------

 L = 1.  Multiply by 2.5417464519 to convert [e a0] to [Debye]
 Dipole X            :          0.0000000            0.0000000            0.0000000
 Dipole Y            :          0.0000000            0.0000000            0.0000000
 Dipole Z            :         -0.1561680            0.0018748           -0.1542932
 Magnitude           :                                                    0.1542932

 L = 2.  Multiply by 1.3450342976 to convert [e a0^2] to [Debye ang]
 Quadrupole XX       :        -10.7782103            0.0000000          -10.7782103
 Quadrupole XY       :          0.0000000            0.0000000            0.0000000
 Quadrupole XZ       :          0.0000000            0.0000000            0.0000000
 Quadrupole YY       :        -10.7782103            0.0000000          -10.7782103
 Quadrupole YZ       :          0.0000000            0.0000000            0.0000000
 Quadrupole ZZ       :        -36.9287249           22.5706212          -14.3581037
 Traceless XX        :          8.7168382           -7.5235404            1.1932978
 Traceless YY        :          8.7168382           -7.5235404            1.1932978
 Traceless ZZ        :        -17.4336764           15.0470808           -2.3865956

 ------------------------------------------------------------------------------------
  ==> Computing MBIS Charges <==

  Electron Count from Grid (Expected Number): 14.00000 (14.00000)
  Difference:  0.00000

  MBIS Charges: (a.u.)
   Center  Symbol  Z      Pop.       Charge
      1       N    7    7.548945   -0.548945
      2       C    6    6.451055   -0.451055

  MBIS Dipoles: [e a0]
   Center  Symbol  Z        X           Y           Z
      1       N    7   -0.000000    0.000000    0.049622
      2       C    6   -0.000000    0.000000   -0.231481

  MBIS Quadrupoles: [e a0^2]
   Center  Symbol  Z      XX        XY        XZ        YY        YZ        ZZ
      1       N    7   -5.0828   -0.0000    0.0000   -5.0828    0.0000   -5.4457
      2       C    6   -5.6954    0.0000   -0.0000   -5.6954    0.0000   -6.4019

  MBIS Octupoles: [e a0^3]
   Center  Symbol  Z      XXX       XXY       XXZ       XYY       XYZ       XZZ       YYY       YYZ       YZZ       ZZZ
      1       N    7    0.0000   -0.0000   -0.0292    0.0000    0.0000   -0.0000   -0.0000   -0.0292   -0.0000    0.0518
      2       C    6   -0.0000   -0.0000   -0.1412   -0.0000   -0.0000   -0.0000    0.0000   -0.1412    0.0000   -0.4759

  MBIS Radial Moments:
   Center  Symbol  Z      [a0^2]      [a0^3]      [a0^4]
      1       N    7   15.611236   35.705290   97.082863
      2       C    6   17.792709   47.596151   149.856634

  MBIS Valence Widths: [a0]
   Center  Symbol  Z     Width
      1       N    7    0.473361
      2       C    6    0.564142

*** tstop() called on Mac.lan at Sun Aug 10 17:40:45 2025
Module time:
	user time   =       3.82 seconds =       0.06 minutes
	system time =       2.14 seconds =       0.04 minutes
	total time  =          1 seconds =       0.02 minutes
Total time:
	user time   =      17.86 seconds =       0.30 minutes
	system time =       4.11 seconds =       0.07 minutes
	total time  =          3 seconds =       0.05 minutes

    Psi4 stopped on: Sunday, 10 August 2025 05:40PM
    Psi4 wall time for execution: 0:00:02.13

*** Psi4 exiting successfully. Buy a developer a beer!
