                               Psi4 1.9.1 release

  ==> Input File <==

--------------------------------------------------------------------------
molecule {
-1 2
H           0.000000           0.000000           0.000000
H           0.000000           0.000000           1.062762
}

set {
basis              cc-pvtz
reference          uks
maxiter            500
DAMPING_PERCENTAGE 1
E_CONVERGENCE      1.0E-8
D_CONVERGENCE      1.0E-8
DIIS_MAX_VECS      400
MBIS_MAXITER       8000
guess              SAP
}

E, wfn = energy('b3lyp', return_wfn=True)
properties('b3lyp','MBIS_CHARGES', wfn=wfn)
wfn.to_file('last_wfn')
--------------------------------------------------------------------------

    Molecular point group: d2h
  Charge       = -1
  Multiplicity = 2
  Basis Set: CC-PVTZ
    Blend: CC-PVTZ
  Basis Set: (CC-PVTZ AUX)
    Blend: CC-PVTZ-JKFIT
  @DF-UKS Final Energy:    -1.05790824536420
    Total Energy =                         -1.0579082453641979
 Dipole X            :          0.0000000            0.0000000            0.0000000
 Dipole Y            :          0.0000000            0.0000000            0.0000000
 Dipole Z            :          0.0000000            0.0000000            0.0000000
 Magnitude           :                                                    0.0000000
    Molecular point group: d2h

    Geometry (in Angstrom), charge = -1, multiplicity = 2:

       Center              X                  Y                   Z               Mass
    ------------   -----------------  -----------------  -----------------  -----------------
         H            0.000000000000     0.000000000000    -0.531381000000     1.007825032230
         H            0.000000000000     0.000000000000     0.531381000000     1.007825032230

  Charge       = -1
  Multiplicity = 2
  Basis Set: CC-PVTZ
    Blend: CC-PVTZ
  Basis Set: (CC-PVTZ AUX)
    Blend: CC-PVTZ-JKFIT

    Orbital Energies [Eh]
    ---------------------

    Alpha Occupied:

       1Ag    -0.081108     1B1u    0.181753

    Alpha Virtual:

       2Ag     0.459010     2B1u    0.611755     1B2u    0.793779
       1B3u    0.793779     3Ag     1.079751     1B3g    1.141108
       1B2g    1.141108     3B1u    1.553247     4Ag     2.534348
       4B1u    2.638794     2B3u    3.216361     2B2u    3.216361
       5Ag     3.274091     1B1g    3.274091     6Ag     3.378879
       5B1u    3.805121     1Au     3.805121     3B2u    3.930795
       3B3u    3.930795     2B3g    4.005582     2B2g    4.005582
       6B1u    4.090026     3B3g    4.778754     3B2g    4.778754
       7Ag     4.856806     7B1u    6.080426

    Beta Occupied:

       1Ag    -0.045892

    Beta Virtual:

       1B1u    0.279808     2Ag     0.476658     2B1u    0.659278
       1B2u    0.808411     1B3u    0.808411     3Ag     1.122554
       1B3g    1.178197     1B2g    1.178197     3B1u    1.593968
       4Ag     2.564000     4B1u    2.680055     2B3u    3.229815
       2B2u    3.229815     5Ag     3.294484     1B1g    3.294484
       6Ag     3.408969     5B1u    3.833266     1Au     3.833266
       3B3u    3.970909     3B2u    3.970909     2B3g    4.047248
       2B2g    4.047248     6B1u    4.140646     3B3g    4.807461
       3B2g    4.807461     7Ag     4.896252     7B1u    6.106299

    Final Occupation by Irrep:
             Ag   B1g   B2g   B3g    Au   B1u   B2u   B3u
    DOCC [     1,    0,    0,    0,    0,    0,    0,    0 ]
    SOCC [     0,    0,    0,    0,    0,    1,    0,    0 ]
    NA   [     1,    0,    0,    0,    0,    1,    0,    0 ]
    NB   [     1,    0,    0,    0,    0,    0,    0,    0 ]

  @DF-UKS Final Energy:    -1.05790824536420

   => Energetics <=

    Nuclear Repulsion Energy =              0.4979263566725194
    One-Electron Energy =                  -2.6682896048293108
    Two-Electron Energy =                   1.8001648354611977
    DFT Exchange-Correlation Energy =      -0.6877098326686044
    Empirical Dispersion Energy =           0.0000000000000000
    VV10 Nonlocal Energy =                  0.0000000000000000
    Total Energy =                         -1.0579082453641979

  UHF NO Occupations:
  HONO-1 :    1 Ag 1.9994402
  HONO-0 :    1B1u 1.0000000
  LUNO+0 :    2 Ag 0.0005598
  LUNO+1 :    2B1u 0.0000000
  LUNO+2 :    3 Ag 0.0000000
  LUNO+3 :    4 Ag 0.0000000

Computation Completed

Properties will be evaluated at   0.000000,   0.000000,   0.000000 [a0]

Properties computed using the B3LYP density matrix

 Multipole Moments:

 ------------------------------------------------------------------------------------
     Multipole            Electronic (a.u.)      Nuclear  (a.u.)        Total (a.u.)
 ------------------------------------------------------------------------------------

 L = 1.  Multiply by 2.5417464519 to convert [e a0] to [Debye]
 Dipole X            :          0.0000000            0.0000000            0.0000000
 Dipole Y            :          0.0000000            0.0000000            0.0000000
 Dipole Z            :          0.0000000            0.0000000            0.0000000
 Magnitude           :                                                    0.0000000

 L = 2.  Multiply by 1.3450342976 to convert [e a0^2] to [Debye ang]
 Quadrupole XX       :         -4.2851080            0.0000000           -4.2851080
 Quadrupole XY       :          0.0000000            0.0000000            0.0000000
 Quadrupole XZ       :          0.0000000            0.0000000            0.0000000
 Quadrupole YY       :         -4.2851080            0.0000000           -4.2851080
 Quadrupole YZ       :          0.0000000            0.0000000            0.0000000
 Quadrupole ZZ       :        -10.1546875            2.0166929           -8.1379946
 Traceless XX        :          1.9565265           -0.6722310            1.2842955
 Traceless YY        :          1.9565265           -0.6722310            1.2842955
 Traceless ZZ        :         -3.9130530            1.3444619           -2.5685911

 ------------------------------------------------------------------------------------
  ==> Computing MBIS Charges <==

  Electron Count from Grid (Expected Number):  3.00000 ( 3.00000)
  Difference: -0.00000

  MBIS Charges: (a.u.)
   Center  Symbol  Z      Pop.       Charge
      1       H    1    1.500000   -0.500000
      2       H    1    1.500000   -0.500000

  MBIS Dipoles: [e a0]
   Center  Symbol  Z        X           Y           Z
      1       H    1    0.000000   -0.000000    0.278532
      2       H    1   -0.000000    0.000000   -0.278532

  MBIS Quadrupoles: [e a0^2]
   Center  Symbol  Z      XX        XY        XZ        YY        YZ        ZZ
      1       H    1   -2.1426    0.0000   -0.0000   -2.1426   -0.0000   -3.0054
      2       H    1   -2.1426    0.0000    0.0000   -2.1426    0.0000   -3.0054

  MBIS Octupoles: [e a0^3]
   Center  Symbol  Z      XXX       XXY       XXZ       XYY       XYZ       XZZ       YYY       YYZ       YZZ       ZZZ
      1       H    1   -0.0000   -0.0000    0.7137    0.0000   -0.0000    0.0000    0.0000    0.7137    0.0000    1.3225
      2       H    1    0.0000   -0.0000   -0.7137    0.0000    0.0000    0.0000    0.0000   -0.7137   -0.0000   -1.3225

  MBIS Radial Moments:
   Center  Symbol  Z      [a0^2]      [a0^3]      [a0^4]
      1       H    1    7.290548   23.025741   84.491033
      2       H    1    7.290548   23.025741   84.491033

  MBIS Valence Widths: [a0]
   Center  Symbol  Z     Width
      1       H    1    0.631596
      2       H    1    0.631596

*** tstop() called on Mac.lan at Sun Aug 10 17:26:10 2025
Module time:
	user time   =       0.95 seconds =       0.02 minutes
	system time =       2.24 seconds =       0.04 minutes
	total time  =          0 seconds =       0.00 minutes
Total time:
	user time   =       2.16 seconds =       0.04 minutes
	system time =       4.35 seconds =       0.07 minutes
	total time  =          1 seconds =       0.02 minutes

    Psi4 stopped on: Sunday, 10 August 2025 05:26PM
    Psi4 wall time for execution: 0:00:01.16

*** Psi4 exiting successfully. Buy a developer a beer!
