                               Psi4 1.9.1 release

  ==> Input File <==

--------------------------------------------------------------------------
molecule {
-1 3
O           0.000000           0.000000           0.000000
N           0.000000           0.000000           1.695008
}

set {
basis              cc-pvtz
reference          uks
maxiter            500
DAMPING_PERCENTAGE 1
E_CONVERGENCE      1.0E-8
D_CONVERGENCE      1.0E-8
DIIS_MAX_VECS      400
MBIS_MAXITER       8000
guess              read
}

E, wfn = energy('b3lyp', restart_file='last_wfn', return_wfn=True)
properties('b3lyp','MBIS_CHARGES', wfn=wfn)
wfn.to_file('last_wfn')
--------------------------------------------------------------------------

    Molecular point group: c2v
  Charge       = -1
  Multiplicity = 3
  Basis Set: CC-PVTZ
    Blend: CC-PVTZ
  Basis Set: (CC-PVTZ AUX)
    Blend: CC-PVTZ-JKFIT
  @DF-UKS Final Energy:  -129.84855928302676
    Total Energy =                       -129.8485592830267592
 Dipole X            :          0.0000000            0.0000000            0.0000000
 Dipole Y            :          0.0000000            0.0000000            0.0000000
 Dipole Z            :          0.1443748           -0.0064269            0.1379479
 Magnitude           :                                                    0.1379479
    Molecular point group: c2v

    Geometry (in Angstrom), charge = -1, multiplicity = 3:

       Center              X                  Y                   Z               Mass
    ------------   -----------------  -----------------  -----------------  -----------------
         O            0.000000000000     0.000000000000    -0.791230464136    15.994914619570
         N            0.000000000000     0.000000000000     0.903777535864    14.003074004430

  Charge       = -1
  Multiplicity = 3
  Basis Set: CC-PVTZ
    Blend: CC-PVTZ
  Basis Set: (CC-PVTZ AUX)
    Blend: CC-PVTZ-JKFIT

    Orbital Energies [Eh]
    ---------------------

    Alpha Occupied:

       1A1   -18.843235     2A1   -14.109622     3A1    -0.618833
       4A1    -0.428755     5A1    -0.063190     1B2    -0.059862
       1B1    -0.059862     2B2     0.033680     2B1     0.033680

    Alpha Virtual:

       6A1     0.270553     7A1     0.685294     3B2     0.709028
       3B1     0.709028     8A1     0.808390     4B2     0.897958
       4B1     0.897958     9A1     0.899686     1A2     1.284295
      10A1     1.284296     5B1     1.300734     5B2     1.300734
      11A1     1.367375    12A1     1.676508     2A2     1.800793
      13A1     1.800794     6B2     2.036856     6B1     2.036856
      14A1     2.321476     7B2     3.074410     7B1     3.074410
      15A1     3.312351    16A1     3.829293     8B2     3.871152
       8B1     3.871152     9B1     4.135938     9B2     4.135938
      17A1     4.142625     3A2     4.142626    10B2     4.218031
      10B1     4.218031    18A1     4.503588     4A2     4.657129
      19A1     4.657140    11B2     4.766693    11B1     4.766693
      20A1     5.173047    12B1     5.449150    12B2     5.449150
      21A1     5.464103     5A2     5.464104    22A1     5.607934
      13B1     5.673355    13B2     5.673355    23A1     6.076735
       6A2     6.503830    24A1     6.503851    14B1     6.720253
      14B2     6.720253    25A1     7.266517    26A1     8.179548

    Beta Occupied:

       1A1   -18.830357     2A1   -14.076472     3A1    -0.580158
       4A1    -0.333452     5A1    -0.042608     1B2     0.018991
       1B1     0.018991

    Beta Virtual:

       2B2     0.197826     2B1     0.197826     6A1     0.301171
       7A1     0.704162     3B2     0.770501     3B1     0.770501
       8A1     0.834876     9A1     0.913752     4B2     0.921390
       4B1     0.921390     5B1     1.330362     5B2     1.330362
      10A1     1.353293     1A2     1.353294    11A1     1.385299
      12A1     1.703911     2A2     1.826982    13A1     1.826983
       6B2     2.057708     6B1     2.057708    14A1     2.337098
       7B2     3.164715     7B1     3.164715    15A1     3.334427
      16A1     3.859057     8B2     3.907771     8B1     3.907771
      17A1     4.209058     3A2     4.209058     9B1     4.233776
       9B2     4.233776    10B2     4.264453    10B1     4.264453
      18A1     4.537574     4A2     4.789398    19A1     4.789408
      11B2     4.839870    11B1     4.839870    20A1     5.200950
      12B1     5.483421    12B2     5.483421    21A1     5.485337
       5A2     5.485339    22A1     5.675456    13B1     5.690367
      13B2     5.690367    23A1     6.091164     6A2     6.554961
      24A1     6.554982    14B2     6.744566    14B1     6.744566
      25A1     7.277552    26A1     8.206272

    Final Occupation by Irrep:
             A1    A2    B1    B2
    DOCC [     5,    0,    1,    1 ]
    SOCC [     0,    0,    1,    1 ]
    NA   [     5,    0,    2,    2 ]
    NB   [     5,    0,    1,    1 ]

  @DF-UKS Final Energy:  -129.84855927914413

   => Energetics <=

    Nuclear Repulsion Energy =             17.4830583675829274
    One-Electron Energy =                -217.7112219628322123
    Two-Electron Energy =                  82.9069875239340490
    DFT Exchange-Correlation Energy =     -12.5273832078288940
    Empirical Dispersion Energy =           0.0000000000000000
    VV10 Nonlocal Energy =                  0.0000000000000000
    Total Energy =                       -129.8485592791441263

  UHF NO Occupations:
  HONO-2 :    5 A1 1.9972592
  HONO-1 :    2 B1 1.0000000
  HONO-0 :    2 B2 1.0000000
  LUNO+0 :    6 A1 0.0027408
  LUNO+1 :    3 B2 0.0017026
  LUNO+2 :    3 B1 0.0017026
  LUNO+3 :    7 A1 0.0006263

Computation Completed

Properties will be evaluated at   0.000000,   0.000000,   0.000000 [a0]

Properties computed using the B3LYP density matrix

 Multipole Moments:

 ------------------------------------------------------------------------------------
     Multipole            Electronic (a.u.)      Nuclear  (a.u.)        Total (a.u.)
 ------------------------------------------------------------------------------------

 L = 1.  Multiply by 2.5417464519 to convert [e a0] to [Debye]
 Dipole X            :          0.0000000            0.0000000            0.0000000
 Dipole Y            :          0.0000000            0.0000000            0.0000000
 Dipole Z            :          0.1443751           -0.0064269            0.1379482
 Magnitude           :                                                    0.1379482

 L = 2.  Multiply by 1.3450342976 to convert [e a0^2] to [Debye ang]
 Quadrupole XX       :         -9.8906661            0.0000000           -9.8906661
 Quadrupole XY       :          0.0000000            0.0000000            0.0000000
 Quadrupole XZ       :          0.0000000            0.0000000            0.0000000
 Quadrupole YY       :         -9.8906661            0.0000000           -9.8906661
 Quadrupole YZ       :          0.0000000            0.0000000            0.0000000
 Quadrupole ZZ       :        -50.8664923           38.3034628          -12.5630295
 Traceless XX        :         13.6586087          -12.7678209            0.8907878
 Traceless YY        :         13.6586087          -12.7678209            0.8907878
 Traceless ZZ        :        -27.3172174           25.5356419           -1.7815756

 ------------------------------------------------------------------------------------
  ==> Computing MBIS Charges <==

  Electron Count from Grid (Expected Number): 16.00000 (16.00000)
  Difference: -0.00000

  MBIS Charges: (a.u.)
   Center  Symbol  Z      Pop.       Charge
      1       O    8    8.612484   -0.612484
      2       N    7    7.387515   -0.387515

  MBIS Dipoles: [e a0]
   Center  Symbol  Z        X           Y           Z
      1       O    8   -0.000000    0.000000    0.038414
      2       N    7    0.000000   -0.000000   -0.154423

  MBIS Quadrupoles: [e a0^2]
   Center  Symbol  Z      XX        XY        XZ        YY        YZ        ZZ
      1       O    8   -4.8686   -0.0000    0.0000   -4.8686   -0.0000   -4.4975
      2       N    7   -5.0221   -0.0000    0.0000   -5.0221    0.0000   -4.9235

  MBIS Octupoles: [e a0^3]
   Center  Symbol  Z      XXX       XXY       XXZ       XYY       XYZ       XZZ       YYY       YYZ       YZZ       ZZZ
      1       O    8    0.0000   -0.0000    0.0083    0.0000   -0.0000    0.0000   -0.0000    0.0083   -0.0000   -0.3250
      2       N    7   -0.0000   -0.0000   -0.0470    0.0000    0.0000    0.0000   -0.0000   -0.0470   -0.0000    0.2400

  MBIS Radial Moments:
   Center  Symbol  Z      [a0^2]      [a0^3]      [a0^4]
      1       O    8   14.234717   28.903426   69.840332
      2       N    7   14.967652   33.960346   91.309273

  MBIS Valence Widths: [a0]
   Center  Symbol  Z     Width
      1       O    8    0.414300
      2       N    7    0.470115

*** tstop() called on Mac.lan at Sun Aug 10 17:47:27 2025
Module time:
	user time   =       3.58 seconds =       0.06 minutes
	system time =       2.24 seconds =       0.04 minutes
	total time  =          0 seconds =       0.00 minutes
Total time:
	user time   =      19.55 seconds =       0.33 minutes
	system time =       4.62 seconds =       0.08 minutes
	total time  =          2 seconds =       0.03 minutes

    Psi4 stopped on: Sunday, 10 August 2025 05:47PM
    Psi4 wall time for execution: 0:00:02.33

*** Psi4 exiting successfully. Buy a developer a beer!
