                               Psi4 1.9.1 release

  ==> Input File <==

--------------------------------------------------------------------------
molecule {
-1 1
O           0.000000           0.000000           0.000000
H           0.000000           0.000000           0.385452
}

set {
basis              cc-pvtz
reference          uks
maxiter            500
DAMPING_PERCENTAGE 1
E_CONVERGENCE      1.0E-8
D_CONVERGENCE      1.0E-8
DIIS_MAX_VECS      400
MBIS_MAXITER       8000
guess              read
}

E, wfn = energy('b3lyp', restart_file='last_wfn', return_wfn=True)
properties('b3lyp','MBIS_CHARGES', wfn=wfn)
wfn.to_file('last_wfn')
--------------------------------------------------------------------------

    Molecular point group: c2v
  Charge       = -1
  Multiplicity = 1
  Basis Set: CC-PVTZ
    Blend: CC-PVTZ
  Basis Set: (CC-PVTZ AUX)
    Blend: CC-PVTZ-JKFIT
  @DF-UKS Final Energy:   -73.91283078025756
    Total Energy =                        -73.9128307802575648
 Dipole X            :          0.0000000            0.0000000            0.0000000
 Dipole Y            :          0.0000000            0.0000000            0.0000000
 Dipole Z            :          0.2800780            0.3398210            0.6198989
 Magnitude           :                                                    0.6198989
    Molecular point group: c2v

    Geometry (in Angstrom), charge = -1, multiplicity = 1:

       Center              X                  Y                   Z               Mass
    ------------   -----------------  -----------------  -----------------  -----------------
         O            0.000000000000     0.000000000000    -0.022847387085    15.994914619570
         H            0.000000000000     0.000000000000     0.362604612915     1.007825032230

  Charge       = -1
  Multiplicity = 1
  Basis Set: CC-PVTZ
    Blend: CC-PVTZ
  Basis Set: (CC-PVTZ AUX)
    Blend: CC-PVTZ-JKFIT

    Orbital Energies [Eh]
    ---------------------

    Alpha Occupied:

       1A1   -18.667850     2A1    -0.754130     3A1    -0.064971
       1B1     0.104023     1B2     0.104023

    Alpha Virtual:

       4A1     0.339137     5A1     0.752368     2B2     0.833088
       2B1     0.833088     6A1     1.101957     7A1     1.222913
       3B2     1.284146     3B1     1.284146     1A2     1.864876
       8A1     1.864876     9A1     2.214670     4B2     2.341274
       4B1     2.341274    10A1     2.933057     5B2     3.638213
       5B1     3.638213    11A1     3.665598     2A2     3.959631
      12A1     3.959631     6B2     4.103696     6B1     4.103696
      13A1     4.352604    14A1     5.399218     7B1     5.590915
       7B2     5.590915     8B2     6.048969     8B1     6.048969
       3A2     6.284160    15A1     6.284160    16A1     6.743448
       9B2     6.864338     9B1     6.864338     4A2     7.519540
      17A1     7.519540    18A1     8.698458    10B2     9.710462
      10B1     9.710462    19A1    12.650130    20A1    20.060724

    Beta Occupied:

       1A1   -18.667850     2A1    -0.754130     3A1    -0.064971
       1B1     0.104023     1B2     0.104023

    Beta Virtual:

       4A1     0.339137     5A1     0.752368     2B2     0.833088
       2B1     0.833088     6A1     1.101957     7A1     1.222913
       3B2     1.284146     3B1     1.284146     1A2     1.864876
       8A1     1.864876     9A1     2.214670     4B2     2.341274
       4B1     2.341274    10A1     2.933057     5B2     3.638213
       5B1     3.638213    11A1     3.665598     2A2     3.959631
      12A1     3.959631     6B2     4.103696     6B1     4.103696
      13A1     4.352604    14A1     5.399218     7B1     5.590915
       7B2     5.590915     8B2     6.048969     8B1     6.048969
       3A2     6.284160    15A1     6.284160    16A1     6.743448
       9B2     6.864338     9B1     6.864338     4A2     7.519540
      17A1     7.519540    18A1     8.698458    10B2     9.710462
      10B1     9.710462    19A1    12.650130    20A1    20.060724

    Final Occupation by Irrep:
             A1    A2    B1    B2
    DOCC [     3,    0,    1,    1 ]
    SOCC [     0,    0,    0,    0 ]
    NA   [     3,    0,    1,    1 ]
    NB   [     3,    0,    1,    1 ]

  @DF-UKS Final Energy:   -73.91283077984760

   => Energetics <=

    Nuclear Repulsion Energy =             10.9829957695380998
    One-Electron Energy =                -125.5663445859546528
    Two-Electron Energy =                  48.5725996662959787
    DFT Exchange-Correlation Energy =      -7.9020816297270198
    Empirical Dispersion Energy =           0.0000000000000000
    VV10 Nonlocal Energy =                  0.0000000000000000
    Total Energy =                        -73.9128307798475959

  UHF NO Occupations:
  HONO-2 :    2 A1 2.0000000
  HONO-1 :    3 A1 2.0000000
  HONO-0 :    1 B2 2.0000000
  LUNO+0 :    4 A1 0.0000000
  LUNO+1 :    5 A1 0.0000000
  LUNO+2 :    6 A1 0.0000000
  LUNO+3 :    2 B2 0.0000000

Computation Completed

Properties will be evaluated at   0.000000,   0.000000,   0.000000 [a0]

Properties computed using the B3LYP density matrix

 Multipole Moments:

 ------------------------------------------------------------------------------------
     Multipole            Electronic (a.u.)      Nuclear  (a.u.)        Total (a.u.)
 ------------------------------------------------------------------------------------

 L = 1.  Multiply by 2.5417464519 to convert [e a0] to [Debye]
 Dipole X            :          0.0000000            0.0000000            0.0000000
 Dipole Y            :          0.0000000            0.0000000            0.0000000
 Dipole Z            :          0.2800780            0.3398210            0.6198989
 Magnitude           :                                                    0.6198989

 L = 2.  Multiply by 1.3450342976 to convert [e a0^2] to [Debye ang]
 Quadrupole XX       :         -5.8415289            0.0000000           -5.8415289
 Quadrupole XY       :          0.0000000            0.0000000            0.0000000
 Quadrupole XZ       :          0.0000000            0.0000000            0.0000000
 Quadrupole YY       :         -5.8415289            0.0000000           -5.8415289
 Quadrupole YZ       :          0.0000000            0.0000000            0.0000000
 Quadrupole ZZ       :         -5.3493965            0.4844440           -4.8649525
 Traceless XX        :         -0.1640442           -0.1614813           -0.3255255
 Traceless YY        :         -0.1640442           -0.1614813           -0.3255255
 Traceless ZZ        :          0.3280883            0.3229627            0.6510510

 ------------------------------------------------------------------------------------
  ==> Computing MBIS Charges <==

  Electron Count from Grid (Expected Number): 10.00000 (10.00000)
  Difference: -0.00000

  MBIS Charges: (a.u.)
   Center  Symbol  Z      Pop.       Charge
      1       O    8    9.408300   -1.408300
      2       H    1    0.591700    0.408300

  MBIS Dipoles: [e a0]
   Center  Symbol  Z        X           Y           Z
      1       O    8    0.000000   -0.000000    0.267410
      2       H    1   -0.000000    0.000000    0.011909

  MBIS Quadrupoles: [e a0^2]
   Center  Symbol  Z      XX        XY        XZ        YY        YZ        ZZ
      1       O    8   -5.7576   -0.0000   -0.0000   -5.7576   -0.0000   -4.9699
      2       H    1   -0.0839   -0.0000    0.0000   -0.0839   -0.0000   -0.0773

  MBIS Octupoles: [e a0^3]
   Center  Symbol  Z      XXX       XXY       XXZ       XYY       XYZ       XZZ       YYY       YYZ       YZZ       ZZZ
      1       O    8   -0.0000   -0.0000    0.4811   -0.0000   -0.0000    0.0000   -0.0000    0.4811    0.0000    1.2875
      2       H    1    0.0000    0.0000    0.0028    0.0000   -0.0000    0.0000    0.0000    0.0028    0.0000    0.0067

  MBIS Radial Moments:
   Center  Symbol  Z      [a0^2]      [a0^3]      [a0^4]
      1       O    8   16.485098   34.652696   86.822030
      2       H    1    0.245226    0.223797    0.245701

  MBIS Valence Widths: [a0]
   Center  Symbol  Z     Width
      1       O    8    0.420511
      2       H    1    0.187958

*** tstop() called on Mac.lan at Sun Aug 10 17:37:42 2025
Module time:
	user time   =       2.87 seconds =       0.05 minutes
	system time =       3.49 seconds =       0.06 minutes
	total time  =          1 seconds =       0.02 minutes
Total time:
	user time   =      11.84 seconds =       0.20 minutes
	system time =       5.52 seconds =       0.09 minutes
	total time  =          2 seconds =       0.03 minutes

    Psi4 stopped on: Sunday, 10 August 2025 05:37PM
    Psi4 wall time for execution: 0:00:01.72

*** Psi4 exiting successfully. Buy a developer a beer!
