                               Psi4 1.9.1 release

  ==> Input File <==

--------------------------------------------------------------------------
molecule {
-1 1
O           0.000000           0.000000           0.000000
H           0.000000           0.000000           1.114739
}

set {
basis              cc-pvtz
reference          uks
maxiter            500
DAMPING_PERCENTAGE 1
E_CONVERGENCE      1.0E-8
D_CONVERGENCE      1.0E-8
DIIS_MAX_VECS      400
MBIS_MAXITER       8000
guess              read
}

E, wfn = energy('b3lyp', restart_file='last_wfn', return_wfn=True)
properties('b3lyp','MBIS_CHARGES', wfn=wfn)
wfn.to_file('last_wfn')
--------------------------------------------------------------------------

    Molecular point group: c2v
  Charge       = -1
  Multiplicity = 1
  Basis Set: CC-PVTZ
    Blend: CC-PVTZ
  Basis Set: (CC-PVTZ AUX)
    Blend: CC-PVTZ-JKFIT
  @DF-UKS Final Energy:   -75.77830999394293
    Total Energy =                        -75.7783099939429263
 Dipole X            :          0.0000000            0.0000000            0.0000000
 Dipole Y            :          0.0000000            0.0000000            0.0000000
 Dipole Z            :         -0.7145676            0.9827727            0.2682051
 Magnitude           :                                                    0.2682051
    Molecular point group: c2v

    Geometry (in Angstrom), charge = -1, multiplicity = 1:

       Center              X                  Y                   Z               Mass
    ------------   -----------------  -----------------  -----------------  -----------------
         O            0.000000000000     0.000000000000    -0.066075343833    15.994914619570
         H            0.000000000000     0.000000000000     1.048663656167     1.007825032230

  Charge       = -1
  Multiplicity = 1
  Basis Set: CC-PVTZ
    Blend: CC-PVTZ
  Basis Set: (CC-PVTZ AUX)
    Blend: CC-PVTZ-JKFIT

    Orbital Energies [Eh]
    ---------------------

    Alpha Occupied:

       1A1   -18.697039     2A1    -0.498580     3A1    -0.023423
       1B1     0.110366     1B2     0.110366

    Alpha Virtual:

       4A1     0.300272     5A1     0.638916     6A1     0.870917
       2B1     0.922824     2B2     0.922824     3B2     1.031231
       3B1     1.031231     7A1     1.296338     8A1     1.470620
       1A2     1.880073     9A1     1.880073     4B2     2.099919
       4B1     2.099919    10A1     2.403395    11A1     2.706248
      12A1     3.540815     2A2     3.540816     5B2     3.700871
       5B1     3.700871    13A1     3.895018     6B2     4.026823
       6B1     4.026823     7B2     4.321766     7B1     4.321766
      14A1     4.380550    15A1     5.200579     8B2     5.578883
       8B1     5.578883     3A2     5.688956    16A1     5.688956
       9B1     6.375908     9B2     6.375908    17A1     6.579458
       4A2     6.658989    18A1     6.658989    10B2     6.946044
      10B1     6.946044    19A1     7.283166    20A1     9.422874

    Beta Occupied:

       1A1   -18.697039     2A1    -0.498580     3A1    -0.023423
       1B2     0.110366     1B1     0.110366

    Beta Virtual:

       4A1     0.300272     5A1     0.638916     6A1     0.870917
       2B1     0.922824     2B2     0.922824     3B2     1.031231
       3B1     1.031231     7A1     1.296338     8A1     1.470620
       1A2     1.880073     9A1     1.880073     4B2     2.099919
       4B1     2.099919    10A1     2.403395    11A1     2.706248
      12A1     3.540815     2A2     3.540816     5B2     3.700871
       5B1     3.700871    13A1     3.895018     6B2     4.026823
       6B1     4.026823     7B2     4.321766     7B1     4.321766
      14A1     4.380550    15A1     5.200579     8B2     5.578883
       8B1     5.578883     3A2     5.688956    16A1     5.688956
       9B1     6.375908     9B2     6.375908    17A1     6.579458
       4A2     6.658989    18A1     6.658989    10B2     6.946044
      10B1     6.946044    19A1     7.283166    20A1     9.422874

    Final Occupation by Irrep:
             A1    A2    B1    B2
    DOCC [     3,    0,    1,    1 ]
    SOCC [     0,    0,    0,    0 ]
    NA   [     3,    0,    1,    1 ]
    NB   [     3,    0,    1,    1 ]

  @DF-UKS Final Energy:   -75.77831000220007

   => Energetics <=

    Nuclear Repulsion Energy =              3.7976761245098642
    One-Electron Energy =                -115.8297345770108393
    Two-Electron Energy =                  43.6656068997443469
    DFT Exchange-Correlation Energy =      -7.4118584494434456
    Empirical Dispersion Energy =           0.0000000000000000
    VV10 Nonlocal Energy =                  0.0000000000000000
    Total Energy =                        -75.7783100022000724

  UHF NO Occupations:
  HONO-2 :    1 B1 2.0000000
  HONO-1 :    1 B2 2.0000000
  HONO-0 :    3 A1 2.0000000
  LUNO+0 :    4 A1 0.0000000
  LUNO+1 :    5 A1 0.0000000
  LUNO+2 :    6 A1 0.0000000
  LUNO+3 :    7 A1 0.0000000

Computation Completed

Properties will be evaluated at   0.000000,   0.000000,   0.000000 [a0]

Properties computed using the B3LYP density matrix

 Multipole Moments:

 ------------------------------------------------------------------------------------
     Multipole            Electronic (a.u.)      Nuclear  (a.u.)        Total (a.u.)
 ------------------------------------------------------------------------------------

 L = 1.  Multiply by 2.5417464519 to convert [e a0] to [Debye]
 Dipole X            :          0.0000000            0.0000000            0.0000000
 Dipole Y            :          0.0000000            0.0000000            0.0000000
 Dipole Z            :         -0.7145676            0.9827727            0.2682051
 Magnitude           :                                                    0.2682051

 L = 2.  Multiply by 1.3450342976 to convert [e a0^2] to [Debye ang]
 Quadrupole XX       :         -6.4630273            0.0000000           -6.4630273
 Quadrupole XY       :          0.0000000            0.0000000            0.0000000
 Quadrupole XZ       :          0.0000000            0.0000000            0.0000000
 Quadrupole YY       :         -6.4630273            0.0000000           -6.4630273
 Quadrupole YZ       :          0.0000000            0.0000000            0.0000000
 Quadrupole ZZ       :         -9.4991178            4.0518125           -5.4473053
 Traceless XX        :          1.0120302           -1.3506042           -0.3385740
 Traceless YY        :          1.0120302           -1.3506042           -0.3385740
 Traceless ZZ        :         -2.0240604            2.7012084            0.6771480

 ------------------------------------------------------------------------------------
  ==> Computing MBIS Charges <==

  Electron Count from Grid (Expected Number): 10.00000 (10.00000)
  Difference:  0.00000

  MBIS Charges: (a.u.)
   Center  Symbol  Z      Pop.       Charge
      1       O    8    9.113446   -1.113446
      2       H    1    0.886554    0.113446

  MBIS Dipoles: [e a0]
   Center  Symbol  Z        X           Y           Z
      1       O    8    0.000000   -0.000000   -0.109899
      2       H    1    0.000000   -0.000000    0.014261

  MBIS Quadrupoles: [e a0^2]
   Center  Symbol  Z      XX        XY        XZ        YY        YZ        ZZ
      1       O    8   -5.6830   -0.0000    0.0000   -5.6830   -0.0000   -5.1920
      2       H    1   -0.7800   -0.0000    0.0000   -0.7800    0.0000   -0.7674

  MBIS Octupoles: [e a0^3]
   Center  Symbol  Z      XXX       XXY       XXZ       XYY       XYZ       XZZ       YYY       YYZ       YZZ       ZZZ
      1       O    8   -0.0000   -0.0000   -0.1883    0.0000   -0.0000    0.0000   -0.0000   -0.1883   -0.0000   -0.9369
      2       H    1    0.0000   -0.0000   -0.0004    0.0000    0.0000   -0.0000   -0.0000   -0.0004    0.0000   -0.0104

  MBIS Radial Moments:
   Center  Symbol  Z      [a0^2]      [a0^3]      [a0^4]
      1       O    8   16.558107   35.008782   87.765655
      2       H    1    2.327369    5.432794   15.020374

  MBIS Valence Widths: [a0]
   Center  Symbol  Z     Width
      1       O    8    0.432224
      2       H    1    0.466239

*** tstop() called on Mac.lan at Sun Aug 10 17:38:10 2025
Module time:
	user time   =       2.83 seconds =       0.05 minutes
	system time =       1.86 seconds =       0.03 minutes
	total time  =          1 seconds =       0.02 minutes
Total time:
	user time   =      10.94 seconds =       0.18 minutes
	system time =       3.93 seconds =       0.07 minutes
	total time  =          2 seconds =       0.03 minutes

    Psi4 stopped on: Sunday, 10 August 2025 05:38PM
    Psi4 wall time for execution: 0:00:01.45

*** Psi4 exiting successfully. Buy a developer a beer!
