                               Psi4 1.9.1 release

  ==> Input File <==

--------------------------------------------------------------------------
molecule {
-1 3
C           0.000000           0.000000           0.000000
H           0.000000           0.000000           0.673163
}

set {
basis              cc-pvtz
reference          uks
maxiter            500
DAMPING_PERCENTAGE 1
E_CONVERGENCE      1.0E-8
D_CONVERGENCE      1.0E-8
DIIS_MAX_VECS      400
MBIS_MAXITER       8000
guess              read
}

E, wfn = energy('b3lyp', restart_file='last_wfn', return_wfn=True)
properties('b3lyp','MBIS_CHARGES', wfn=wfn)
wfn.to_file('last_wfn')
--------------------------------------------------------------------------

    Molecular point group: c2v
  Charge       = -1
  Multiplicity = 3
  Basis Set: CC-PVTZ
    Blend: CC-PVTZ
  Basis Set: (CC-PVTZ AUX)
    Blend: CC-PVTZ-JKFIT
  @DF-UKS Final Energy:   -38.23754978824338
    Total Energy =                        -38.2375497882433777
 Dipole X            :          0.0000000            0.0000000            0.0000000
 Dipole Y            :          0.0000000            0.0000000            0.0000000
 Dipole Z            :          0.3745386            0.5821755            0.9567141
 Magnitude           :                                                    0.9567141
    Molecular point group: c2v

    Geometry (in Angstrom), charge = -1, multiplicity = 3:

       Center              X                  Y                   Z               Mass
    ------------   -----------------  -----------------  -----------------  -----------------
         C            0.000000000000     0.000000000000    -0.052155569474    12.000000000000
         H            0.000000000000     0.000000000000     0.621007430526     1.007825032230

  Charge       = -1
  Multiplicity = 3
  Basis Set: CC-PVTZ
    Blend: CC-PVTZ
  Basis Set: (CC-PVTZ AUX)
    Blend: CC-PVTZ-JKFIT

    Orbital Energies [Eh]
    ---------------------

    Alpha Occupied:

       1A1    -9.820968     2A1    -0.414623     3A1     0.023875
       1B1     0.093770     1B2     0.093770

    Alpha Virtual:

       4A1     0.297520     5A1     0.538845     2B1     0.575420
       2B2     0.575420     6A1     0.690968     3B1     0.961437
       3B2     0.961437     7A1     0.969562     8A1     0.971994
       1A2     0.971994     9A1     1.326477     4B2     1.407120
       4B1     1.407120    10A1     2.185623     5B1     2.255586
       5B2     2.255586    11A1     2.422416    12A1     2.679390
      13A1     2.973606     2A2     2.973606     6B1     3.006583
       6B2     3.006583     7B1     3.108394     7B2     3.108394
      14A1     3.233886     3A2     3.233886     8B2     3.404307
       8B1     3.404307    15A1     3.438462    16A1     4.328733
      17A1     4.508344     4A2     4.508344     9B1     4.527734
       9B2     4.527734    18A1     6.091685    10B1     6.277017
      10B2     6.277017    19A1     7.339032    20A1    15.539716

    Beta Occupied:

       1A1    -9.798145     2A1    -0.349844     3A1     0.068397

    Beta Virtual:

       1B2     0.249369     1B1     0.249369     4A1     0.303296
       5A1     0.555007     2B1     0.644484     2B2     0.644484
       6A1     0.728416     7A1     0.993429     3B1     1.000131
       3B2     1.000131     1A2     1.048527     8A1     1.048527
       9A1     1.343884     4B2     1.427143     4B1     1.427143
      10A1     2.225199     5B2     2.331750     5B1     2.331750
      11A1     2.439942    12A1     2.739608     2A2     3.032000
      13A1     3.032000     6B1     3.101471     6B2     3.101471
       7B1     3.155307     7B2     3.155307    14A1     3.338879
       3A2     3.338879     8B2     3.441072     8B1     3.441072
      15A1     3.469212    16A1     4.350481    17A1     4.550331
       4A2     4.550331     9B1     4.551589     9B2     4.551589
      18A1     6.117546    10B1     6.310592    10B2     6.310592
      19A1     7.348754    20A1    15.566502

    Final Occupation by Irrep:
             A1    A2    B1    B2
    DOCC [     3,    0,    0,    0 ]
    SOCC [     0,    0,    1,    1 ]
    NA   [     3,    0,    1,    1 ]
    NB   [     3,    0,    0,    0 ]

  @DF-UKS Final Energy:   -38.23754978825608

   => Energetics <=

    Nuclear Repulsion Energy =              4.7166336593365950
    One-Electron Energy =                 -62.2397661327414795
    Two-Electron Energy =                  24.2342423642210640
    DFT Exchange-Correlation Energy =      -4.9486596790722599
    Empirical Dispersion Energy =           0.0000000000000000
    VV10 Nonlocal Energy =                  0.0000000000000000
    Total Energy =                        -38.2375497882560822

  UHF NO Occupations:
  HONO-2 :    3 A1 1.9976454
  HONO-1 :    1 B1 1.0000000
  HONO-0 :    1 B2 1.0000000
  LUNO+0 :    4 A1 0.0023546
  LUNO+1 :    5 A1 0.0001820
  LUNO+2 :    6 A1 0.0000011
  LUNO+3 :    7 A1 0.0000000

Computation Completed

Properties will be evaluated at   0.000000,   0.000000,   0.000000 [a0]

Properties computed using the B3LYP density matrix

 Multipole Moments:

 ------------------------------------------------------------------------------------
     Multipole            Electronic (a.u.)      Nuclear  (a.u.)        Total (a.u.)
 ------------------------------------------------------------------------------------

 L = 1.  Multiply by 2.5417464519 to convert [e a0] to [Debye]
 Dipole X            :          0.0000000            0.0000000            0.0000000
 Dipole Y            :          0.0000000            0.0000000            0.0000000
 Dipole Z            :          0.3745386            0.5821755            0.9567141
 Magnitude           :                                                    0.9567141

 L = 2.  Multiply by 1.3450342976 to convert [e a0^2] to [Debye ang]
 Quadrupole XX       :         -7.6926118            0.0000000           -7.6926118
 Quadrupole XY       :          0.0000000            0.0000000            0.0000000
 Quadrupole XZ       :          0.0000000            0.0000000            0.0000000
 Quadrupole YY       :         -7.6926118            0.0000000           -7.6926118
 Quadrupole YZ       :          0.0000000            0.0000000            0.0000000
 Quadrupole ZZ       :         -9.1376276            1.4354661           -7.7021615
 Traceless XX        :          0.4816719           -0.4784887            0.0031832
 Traceless YY        :          0.4816719           -0.4784887            0.0031832
 Traceless ZZ        :         -0.9633438            0.9569774           -0.0063664

 ------------------------------------------------------------------------------------
  ==> Computing MBIS Charges <==

  Electron Count from Grid (Expected Number):  8.00000 ( 8.00000)
  Difference:  0.00000

  MBIS Charges: (a.u.)
   Center  Symbol  Z      Pop.       Charge
      1       C    6    7.192914   -1.192914
      2       H    1    0.807086    0.192914

  MBIS Dipoles: [e a0]
   Center  Symbol  Z        X           Y           Z
      1       C    6   -0.000000   -0.000000    0.588319
      2       H    1    0.000000    0.000000    0.024431

  MBIS Quadrupoles: [e a0^2]
   Center  Symbol  Z      XX        XY        XZ        YY        YZ        ZZ
      1       C    6   -7.4567    0.0000    0.0000   -7.4567    0.0000   -7.6664
      2       H    1   -0.2359   -0.0000   -0.0000   -0.2359   -0.0000   -0.2312

  MBIS Octupoles: [e a0^3]
   Center  Symbol  Z      XXX       XXY       XXZ       XYY       XYZ       XZZ       YYY       YYZ       YZZ       ZZZ
      1       C    6   -0.0000    0.0000    1.4278   -0.0000   -0.0000   -0.0000    0.0000    1.4278   -0.0000    3.9538
      2       H    1    0.0000    0.0000    0.0064   -0.0000   -0.0000   -0.0000    0.0000    0.0064    0.0000    0.0142

  MBIS Radial Moments:
   Center  Symbol  Z      [a0^2]      [a0^3]      [a0^4]
      1       C    6   22.579838   63.637223   209.351544
      2       H    1    0.703009    0.927802    1.473135

  MBIS Valence Widths: [a0]
   Center  Symbol  Z     Width
      1       C    6    0.590851
      2       H    1    0.272959

*** tstop() called on Mac.lan at Sun Aug 10 17:35:18 2025
Module time:
	user time   =       3.15 seconds =       0.05 minutes
	system time =       2.41 seconds =       0.04 minutes
	total time  =          1 seconds =       0.02 minutes
Total time:
	user time   =      12.69 seconds =       0.21 minutes
	system time =       4.56 seconds =       0.08 minutes
	total time  =          2 seconds =       0.03 minutes

    Psi4 stopped on: Sunday, 10 August 2025 05:35PM
    Psi4 wall time for execution: 0:00:01.68

*** Psi4 exiting successfully. Buy a developer a beer!
