                               Psi4 1.9.1 release

  ==> Input File <==

--------------------------------------------------------------------------
molecule {
-1 1
N           0.000000           0.000000           0.000000
C           0.000000           0.000000           1.343741
}

set {
basis              cc-pvtz
reference          uks
maxiter            500
DAMPING_PERCENTAGE 1
E_CONVERGENCE      1.0E-8
D_CONVERGENCE      1.0E-8
DIIS_MAX_VECS      400
MBIS_MAXITER       8000
guess              read
}

E, wfn = energy('b3lyp', restart_file='last_wfn', return_wfn=True)
properties('b3lyp','MBIS_CHARGES', wfn=wfn)
wfn.to_file('last_wfn')
--------------------------------------------------------------------------

    Molecular point group: c2v
  Charge       = -1
  Multiplicity = 1
  Basis Set: CC-PVTZ
    Blend: CC-PVTZ
  Basis Set: (CC-PVTZ AUX)
    Blend: CC-PVTZ-JKFIT
  @DF-UKS Final Energy:   -92.84024328074072
    Total Energy =                        -92.8402432807407223
 Dipole X            :          0.0000000            0.0000000            0.0000000
 Dipole Y            :          0.0000000            0.0000000            0.0000000
 Dipole Z            :         -0.1791953            0.0018011           -0.1773941
 Magnitude           :                                                    0.1773941
    Molecular point group: c2v

    Geometry (in Angstrom), charge = -1, multiplicity = 1:

       Center              X                  Y                   Z               Mass
    ------------   -----------------  -----------------  -----------------  -----------------
         N            0.000000000000     0.000000000000    -0.620114837086    14.003074004430
         C            0.000000000000     0.000000000000     0.723626162914    12.000000000000

  Charge       = -1
  Multiplicity = 1
  Basis Set: CC-PVTZ
    Blend: CC-PVTZ
  Basis Set: (CC-PVTZ AUX)
    Blend: CC-PVTZ-JKFIT

    Orbital Energies [Eh]
    ---------------------

    Alpha Occupied:

       1A1   -14.049439     2A1    -9.937760     3A1    -0.543518
       4A1    -0.167218     1B1    -0.026908     1B2    -0.026908
       5A1    -0.023252

    Alpha Virtual:

       2B2     0.259521     2B1     0.259521     6A1     0.405492
       3B1     0.564750     3B2     0.564750     7A1     0.579560
       8A1     0.696656     9A1     0.772731     4B2     0.775811
       4B1     0.775811     1A2     0.931600    10A1     0.931600
       5B2     1.089843     5B1     1.089843    11A1     1.155355
       2A2     1.419527    12A1     1.419527    13A1     1.444233
       6B1     1.755428     6B2     1.755428    14A1     1.983866
       7B1     2.313634     7B2     2.313634    15A1     2.503628
       8B2     2.969384     8B1     2.969384     3A2     2.996424
      16A1     2.996424     9B1     3.024699     9B2     3.024699
      17A1     3.218370    10B1     3.263427    10B2     3.263427
       4A2     3.273438    18A1     3.273440    19A1     3.339368
      11B1     3.650066    11B2     3.650066    20A1     3.820569
      12B2     4.211173    12B1     4.211173     5A2     4.516284
      21A1     4.516284    22A1     4.816801     6A2     4.816809
      23A1     4.986789    13B1     4.989846    13B2     4.989846
      24A1     5.458161    14B1     5.474945    14B2     5.474945
      25A1     5.722140    26A1     9.886980

    Beta Occupied:

       1A1   -14.049439     2A1    -9.937760     3A1    -0.543518
       4A1    -0.167218     1B1    -0.026908     1B2    -0.026908
       5A1    -0.023252

    Beta Virtual:

       2B2     0.259521     2B1     0.259521     6A1     0.405492
       3B1     0.564750     3B2     0.564750     7A1     0.579560
       8A1     0.696656     9A1     0.772731     4B2     0.775811
       4B1     0.775811     1A2     0.931600    10A1     0.931600
       5B2     1.089843     5B1     1.089843    11A1     1.155355
       2A2     1.419527    12A1     1.419527    13A1     1.444233
       6B1     1.755428     6B2     1.755428    14A1     1.983866
       7B1     2.313634     7B2     2.313634    15A1     2.503628
       8B2     2.969384     8B1     2.969384     3A2     2.996424
      16A1     2.996424     9B1     3.024699     9B2     3.024699
      17A1     3.218370    10B1     3.263427    10B2     3.263427
       4A2     3.273438    18A1     3.273440    19A1     3.339368
      11B1     3.650066    11B2     3.650066    20A1     3.820569
      12B2     4.211173    12B1     4.211173     5A2     4.516284
      21A1     4.516284    22A1     4.816801     6A2     4.816809
      23A1     4.986789    13B1     4.989846    13B2     4.989846
      24A1     5.458161    14B1     5.474945    14B2     5.474945
      25A1     5.722140    26A1     9.886980

    Final Occupation by Irrep:
             A1    A2    B1    B2
    DOCC [     5,    0,    1,    1 ]
    SOCC [     0,    0,    0,    0 ]
    NA   [     5,    0,    1,    1 ]
    NB   [     5,    0,    1,    1 ]

  @DF-UKS Final Energy:   -92.84024328040985

   => Energetics <=

    Nuclear Repulsion Energy =             16.5399752244963878
    One-Electron Energy =                -162.0275796110569502
    Two-Electron Energy =                  62.6188691167260387
    DFT Exchange-Correlation Energy =      -9.9715080105753202
    Empirical Dispersion Energy =           0.0000000000000000
    VV10 Nonlocal Energy =                  0.0000000000000000
    Total Energy =                        -92.8402432804098510

  UHF NO Occupations:
  HONO-2 :    5 A1 2.0000000
  HONO-1 :    1 B2 2.0000000
  HONO-0 :    1 B1 2.0000000
  LUNO+0 :    6 A1 0.0000000
  LUNO+1 :    7 A1 0.0000000
  LUNO+2 :    8 A1 0.0000000
  LUNO+3 :    2 B1 0.0000000

Computation Completed

Properties will be evaluated at   0.000000,   0.000000,   0.000000 [a0]

Properties computed using the B3LYP density matrix

 Multipole Moments:

 ------------------------------------------------------------------------------------
     Multipole            Electronic (a.u.)      Nuclear  (a.u.)        Total (a.u.)
 ------------------------------------------------------------------------------------

 L = 1.  Multiply by 2.5417464519 to convert [e a0] to [Debye]
 Dipole X            :          0.0000000            0.0000000            0.0000000
 Dipole Y            :          0.0000000            0.0000000            0.0000000
 Dipole Z            :         -0.1791953            0.0018011           -0.1773941
 Magnitude           :                                                    0.1773941

 L = 2.  Multiply by 1.3450342976 to convert [e a0^2] to [Debye ang]
 Quadrupole XX       :        -10.6807287            0.0000000          -10.6807287
 Quadrupole XY       :          0.0000000            0.0000000            0.0000000
 Quadrupole XZ       :          0.0000000            0.0000000            0.0000000
 Quadrupole YY       :        -10.6807287            0.0000000          -10.6807287
 Quadrupole YZ       :          0.0000000            0.0000000            0.0000000
 Quadrupole ZZ       :        -35.0777655           20.8321846          -14.2455809
 Traceless XX        :          8.1323456           -6.9440615            1.1882841
 Traceless YY        :          8.1323456           -6.9440615            1.1882841
 Traceless ZZ        :        -16.2646912           13.8881230           -2.3765681

 ------------------------------------------------------------------------------------
  ==> Computing MBIS Charges <==

  Electron Count from Grid (Expected Number): 14.00000 (14.00000)
  Difference:  0.00000

  MBIS Charges: (a.u.)
   Center  Symbol  Z      Pop.       Charge
      1       N    7    7.540399   -0.540399
      2       C    6    6.459602   -0.459602

  MBIS Dipoles: [e a0]
   Center  Symbol  Z        X           Y           Z
      1       N    7   -0.000000   -0.000000    0.061271
      2       C    6   -0.000000   -0.000000   -0.243445

  MBIS Quadrupoles: [e a0^2]
   Center  Symbol  Z      XX        XY        XZ        YY        YZ        ZZ
      1       N    7   -5.0165    0.0000   -0.0000   -5.0165    0.0000   -5.4238
      2       C    6   -5.6643    0.0000   -0.0000   -5.6643    0.0000   -6.4109

  MBIS Octupoles: [e a0^3]
   Center  Symbol  Z      XXX       XXY       XXZ       XYY       XYZ       XZZ       YYY       YYZ       YZZ       ZZZ
      1       N    7   -0.0000   -0.0000    0.0116   -0.0000    0.0000    0.0000   -0.0000    0.0116   -0.0000    0.1474
      2       C    6   -0.0000   -0.0000   -0.1929   -0.0000   -0.0000   -0.0000    0.0000   -0.1929    0.0000   -0.5814

  MBIS Radial Moments:
   Center  Symbol  Z      [a0^2]      [a0^3]      [a0^4]
      1       N    7   15.456753   35.224028   95.505465
      2       C    6   17.739371   47.364932   148.875335

  MBIS Valence Widths: [a0]
   Center  Symbol  Z     Width
      1       N    7    0.471120
      2       C    6    0.562539

*** tstop() called on Mac.lan at Sun Aug 10 17:40:40 2025
Module time:
	user time   =       4.08 seconds =       0.07 minutes
	system time =       1.72 seconds =       0.03 minutes
	total time  =          1 seconds =       0.02 minutes
Total time:
	user time   =      18.62 seconds =       0.31 minutes
	system time =       4.19 seconds =       0.07 minutes
	total time  =          3 seconds =       0.05 minutes

    Psi4 stopped on: Sunday, 10 August 2025 05:40PM
    Psi4 wall time for execution: 0:00:02.23

*** Psi4 exiting successfully. Buy a developer a beer!
