                               Psi4 1.9.1 release

  ==> Input File <==

--------------------------------------------------------------------------
molecule {
-1 2
H           0.000000           0.000000           0.000000
H           0.000000           0.000000           1.581675
}

set {
basis              cc-pvtz
reference          uks
maxiter            500
DAMPING_PERCENTAGE 1
E_CONVERGENCE      1.0E-8
D_CONVERGENCE      1.0E-8
DIIS_MAX_VECS      400
MBIS_MAXITER       8000
guess              read
}

E, wfn = energy('b3lyp', restart_file='last_wfn', return_wfn=True)
properties('b3lyp','MBIS_CHARGES', wfn=wfn)
wfn.to_file('last_wfn')
--------------------------------------------------------------------------

    Molecular point group: d2h
  Charge       = -1
  Multiplicity = 2
  Basis Set: CC-PVTZ
    Blend: CC-PVTZ
  Basis Set: (CC-PVTZ AUX)
    Blend: CC-PVTZ-JKFIT
  @DF-UKS Final Energy:    -1.05678438495922
    Total Energy =                         -1.0567843849592184
 Dipole X            :          0.0000000            0.0000000            0.0000000
 Dipole Y            :          0.0000000            0.0000000            0.0000000
 Dipole Z            :          0.0000000            0.0000000            0.0000000
 Magnitude           :                                                    0.0000000
    Molecular point group: d2h

    Geometry (in Angstrom), charge = -1, multiplicity = 2:

       Center              X                  Y                   Z               Mass
    ------------   -----------------  -----------------  -----------------  -----------------
         H            0.000000000000     0.000000000000    -0.790837500000     1.007825032230
         H            0.000000000000     0.000000000000     0.790837500000     1.007825032230

  Charge       = -1
  Multiplicity = 2
  Basis Set: CC-PVTZ
    Blend: CC-PVTZ
  Basis Set: (CC-PVTZ AUX)
    Blend: CC-PVTZ-JKFIT

    Orbital Energies [Eh]
    ---------------------

    Alpha Occupied:

       1Ag    -0.035286     1B1u    0.106717

    Alpha Virtual:

       2Ag     0.502116     2B1u    0.536834     1B3u    0.806233
       1B2u    0.806233     3Ag     0.903208     1B3g    1.026392
       1B2g    1.026392     3B1u    1.397152     4Ag     2.488057
       4B1u    2.665590     5Ag     3.214126     2B3u    3.266066
       2B2u    3.266066     1B1g    3.464854     6Ag     3.464855
       1Au     3.550357     5B1u    3.550357     2B2g    3.761663
       2B3g    3.761663     3B3u    3.884722     3B2u    3.884722
       6B1u    3.956298     3B3g    4.067388     3B2g    4.067388
       7Ag     4.196706     7B1u    4.933811

    Beta Occupied:

       1Ag     0.020414

    Beta Virtual:

       1B1u    0.219186     2Ag     0.527253     2B1u    0.586842
       1B3u    0.832606     1B2u    0.832606     3Ag     0.941795
       1B2g    1.068799     1B3g    1.068799     3B1u    1.441248
       4Ag     2.562086     4B1u    2.735636     5Ag     3.248061
       2B3u    3.308999     2B2u    3.308999     1B1g    3.511005
       6Ag     3.511005     1Au     3.597694     5B1u    3.597694
       2B2g    3.804267     2B3g    3.804267     3B3u    3.945838
       3B2u    3.945838     6B1u    4.011273     3B3g    4.132599
       3B2g    4.132599     7Ag     4.257394     7B1u    4.984463

    Final Occupation by Irrep:
             Ag   B1g   B2g   B3g    Au   B1u   B2u   B3u
    DOCC [     1,    0,    0,    0,    0,    0,    0,    0 ]
    SOCC [     0,    0,    0,    0,    0,    1,    0,    0 ]
    NA   [     1,    0,    0,    0,    0,    1,    0,    0 ]
    NB   [     1,    0,    0,    0,    0,    0,    0,    0 ]

  @DF-UKS Final Energy:    -1.05678438458865

   => Energetics <=

    Nuclear Repulsion Energy =              0.3345676012265479
    One-Electron Energy =                  -2.3902253354656287
    Two-Electron Energy =                   1.6655016024451019
    DFT Exchange-Correlation Energy =      -0.6666282527946670
    Empirical Dispersion Energy =           0.0000000000000000
    VV10 Nonlocal Energy =                  0.0000000000000000
    Total Energy =                         -1.0567843845886458

  UHF NO Occupations:
  HONO-1 :    1 Ag 1.9976175
  HONO-0 :    1B1u 1.0000000
  LUNO+0 :    2 Ag 0.0023825
  LUNO+1 :    3 Ag 0.0000000
  LUNO+2 :    2B1u 0.0000000
  LUNO+3 :    4 Ag 0.0000000

Computation Completed

Properties will be evaluated at   0.000000,   0.000000,   0.000000 [a0]

Properties computed using the B3LYP density matrix

 Multipole Moments:

 ------------------------------------------------------------------------------------
     Multipole            Electronic (a.u.)      Nuclear  (a.u.)        Total (a.u.)
 ------------------------------------------------------------------------------------

 L = 1.  Multiply by 2.5417464519 to convert [e a0] to [Debye]
 Dipole X            :          0.0000000            0.0000000            0.0000000
 Dipole Y            :          0.0000000            0.0000000            0.0000000
 Dipole Z            :          0.0000000            0.0000000            0.0000000
 Magnitude           :                                                    0.0000000

 L = 2.  Multiply by 1.3450342976 to convert [e a0^2] to [Debye ang]
 Quadrupole XX       :         -4.3796393            0.0000000           -4.3796393
 Quadrupole XY       :          0.0000000            0.0000000            0.0000000
 Quadrupole XZ       :          0.0000000            0.0000000            0.0000000
 Quadrupole YY       :         -4.3796393            0.0000000           -4.3796393
 Quadrupole YZ       :          0.0000000            0.0000000            0.0000000
 Quadrupole ZZ       :        -12.3014793            4.4668590           -7.8346204
 Traceless XX        :          2.6406133           -1.4889530            1.1516603
 Traceless YY        :          2.6406133           -1.4889530            1.1516603
 Traceless ZZ        :         -5.2812267            2.9779060           -2.3033207

 ------------------------------------------------------------------------------------
  ==> Computing MBIS Charges <==

  Electron Count from Grid (Expected Number):  3.00000 ( 3.00000)
  Difference: -0.00000

  MBIS Charges: (a.u.)
   Center  Symbol  Z      Pop.       Charge
      1       H    1    1.500000   -0.500000
      2       H    1    1.500000   -0.500000

  MBIS Dipoles: [e a0]
   Center  Symbol  Z        X           Y           Z
      1       H    1    0.000000   -0.000000    0.145560
      2       H    1    0.000000   -0.000000   -0.145560

  MBIS Quadrupoles: [e a0^2]
   Center  Symbol  Z      XX        XY        XZ        YY        YZ        ZZ
      1       H    1   -2.1898    0.0000   -0.0000   -2.1898    0.0000   -2.3655
      2       H    1   -2.1898   -0.0000    0.0000   -2.1898   -0.0000   -2.3655

  MBIS Octupoles: [e a0^3]
   Center  Symbol  Z      XXX       XXY       XXZ       XYY       XYZ       XZZ       YYY       YYZ       YZZ       ZZZ
      1       H    1   -0.0000    0.0000    0.2758    0.0000    0.0000   -0.0000   -0.0000    0.2758   -0.0000    0.4647
      2       H    1    0.0000   -0.0000   -0.2758    0.0000   -0.0000    0.0000   -0.0000   -0.2758    0.0000   -0.4647

  MBIS Radial Moments:
   Center  Symbol  Z      [a0^2]      [a0^3]      [a0^4]
      1       H    1    6.745166   20.201434   70.363355
      2       H    1    6.745166   20.201434   70.363355

  MBIS Valence Widths: [a0]
   Center  Symbol  Z     Width
      1       H    1    0.612412
      2       H    1    0.612412

*** tstop() called on Mac.lan at Sun Aug 10 17:26:33 2025
Module time:
	user time   =       0.55 seconds =       0.01 minutes
	system time =       1.37 seconds =       0.02 minutes
	total time  =          0 seconds =       0.00 minutes
Total time:
	user time   =       1.32 seconds =       0.02 minutes
	system time =       3.55 seconds =       0.06 minutes
	total time  =          0 seconds =       0.00 minutes

    Psi4 stopped on: Sunday, 10 August 2025 05:26PM
    Psi4 wall time for execution: 0:00:00.69

*** Psi4 exiting successfully. Buy a developer a beer!
