                               Psi4 1.9.1 release

  ==> Input File <==

--------------------------------------------------------------------------
molecule {
-1 2
N           0.000000           0.000000           0.000000
N           0.000000           0.000000           0.945960
}

set {
basis              cc-pvtz
reference          uks
maxiter            500
DAMPING_PERCENTAGE 1
E_CONVERGENCE      1.0E-8
D_CONVERGENCE      1.0E-8
DIIS_MAX_VECS      400
MBIS_MAXITER       8000
guess              read
}

E, wfn = energy('b3lyp', restart_file='last_wfn', return_wfn=True)
properties('b3lyp','MBIS_CHARGES', wfn=wfn)
wfn.to_file('last_wfn')
--------------------------------------------------------------------------

    Molecular point group: d2h
  Charge       = -1
  Multiplicity = 2
  Basis Set: CC-PVTZ
    Blend: CC-PVTZ
  Basis Set: (CC-PVTZ AUX)
    Blend: CC-PVTZ-JKFIT
  @DF-UKS Final Energy:  -109.30410844325419
    Total Energy =                       -109.3041084432541936
 Dipole X            :          0.0000000            0.0000000            0.0000000
 Dipole Y            :          0.0000000            0.0000000            0.0000000
 Dipole Z            :          0.0000000           -0.0000000           -0.0000000
 Magnitude           :                                                    0.0000000
    Molecular point group: d2h

    Geometry (in Angstrom), charge = -1, multiplicity = 2:

       Center              X                  Y                   Z               Mass
    ------------   -----------------  -----------------  -----------------  -----------------
         N            0.000000000000     0.000000000000    -0.472980000000    14.003074004430
         N            0.000000000000     0.000000000000     0.472980000000    14.003074004430

  Charge       = -1
  Multiplicity = 2
  Basis Set: CC-PVTZ
    Blend: CC-PVTZ
  Basis Set: (CC-PVTZ AUX)
    Blend: CC-PVTZ-JKFIT

    Orbital Energies [Eh]
    ---------------------

    Alpha Occupied:

       1Ag   -13.965960     1B1u  -13.958818     2Ag    -0.826319
       1B3u   -0.171128     2B1u   -0.160659     1B2u   -0.157312
       3Ag    -0.082618     1B2g    0.302546

    Alpha Virtual:

       1B3g    0.388233     3B1u    0.561904     2B2u    0.661597
       2B3u    0.661876     4Ag     0.670990     5Ag     0.826572
       2B2g    0.837149     2B3g    0.856289     4B1u    1.080414
       1B1g    1.170748     6Ag     1.171841     5B1u    1.429260
       3B3u    1.537539     3B2u    1.540080     1Au     1.648471
       6B1u    1.650233     7Ag     1.960472     3B2g    2.010490
       3B3g    2.016203     7B1u    2.660952     4B3u    3.064197
       4B2u    3.067345     8Ag     3.408044     4B2g    3.601355
       4B3g    3.607074     8B1u    3.693141     5B3u    3.892544
       5B2u    3.892647     2B1g    3.895068     9Ag     3.895931
       6B3u    4.134896     6B2u    4.135022    10Ag     4.485192
       5B2g    4.574066     5B3g    4.574216     6B2g    4.690677
       6B3g    4.694889     3B1g    4.762943    11Ag     4.764906
       2Au     4.850321     9B1u    4.852464    12Ag     5.243273
      10B1u    5.367980     7B2u    5.598532     7B3u    5.599661
       3Au     5.664420    11B1u    5.665540    12B1u    6.642357
       7B2g    7.463753     7B3g    7.464567    13Ag     8.048277
      13B1u   22.068718

    Beta Occupied:

       1Ag   -13.958036     1B1u  -13.950793     2Ag    -0.814122
       1B2u   -0.150349     2B1u   -0.129444     1B3u   -0.119779
       3Ag    -0.064043

    Beta Virtual:

       1B3g    0.398443     1B2g    0.426335     3B1u    0.568691
       2B2u    0.665263     4Ag     0.676863     2B3u    0.684405
       5Ag     0.837175     2B3g    0.864181     2B2g    0.886244
       4B1u    1.098638     1B1g    1.186763     6Ag     1.187070
       5B1u    1.445235     3B2u    1.543018     3B3u    1.568748
       1Au     1.679362     6B1u    1.679770     7Ag     1.967150
       3B3g    2.020527     3B2g    2.042140     7B1u    2.672062
       4B2u    3.073320     4B3u    3.099974     8Ag     3.416640
       4B3g    3.614621     4B2g    3.643324     8B1u    3.712267
       2B1g    3.907353     9Ag     3.907727     5B2u    3.913684
       5B3u    3.913701     6B2u    4.137934     6B3u    4.162283
      10Ag     4.495771     5B3g    4.603002     5B2g    4.603029
       6B3g    4.697459     6B2g    4.721700     3B1g    4.797091
      11Ag     4.797376     9B1u    4.886594     2Au     4.886860
      12Ag     5.254905    10B1u    5.381011     7B2u    5.601130
       7B3u    5.627570     3Au     5.685020    11B1u    5.685443
      12B1u    6.652744     7B3g    7.468324     7B2g    7.494476
      13Ag     8.062520    13B1u   22.079211

    Final Occupation by Irrep:
             Ag   B1g   B2g   B3g    Au   B1u   B2u   B3u
    DOCC [     3,    0,    0,    0,    0,    2,    1,    1 ]
    SOCC [     0,    0,    1,    0,    0,    0,    0,    0 ]
    NA   [     3,    0,    1,    0,    0,    2,    1,    1 ]
    NB   [     3,    0,    0,    0,    0,    2,    1,    1 ]

  @DF-UKS Final Energy:  -109.30410844320254

   => Energetics <=

    Nuclear Repulsion Energy =             27.4109722639752285
    One-Electron Energy =                -206.9219997143815135
    Two-Electron Energy =                  81.7583540582775328
    DFT Exchange-Correlation Energy =     -11.5514350510737813
    Empirical Dispersion Energy =           0.0000000000000000
    VV10 Nonlocal Energy =                  0.0000000000000000
    Total Energy =                       -109.3041084432025372

  UHF NO Occupations:
  HONO-2 :    2B1u 1.9997720
  HONO-1 :    1B3u 1.9997094
  HONO-0 :    1B2g 1.0000000
  LUNO+0 :    2B3u 0.0002906
  LUNO+1 :    3B1u 0.0002280
  LUNO+2 :    4 Ag 0.0001208
  LUNO+3 :    2B2u 0.0000132

Computation Completed

Properties will be evaluated at   0.000000,   0.000000,   0.000000 [a0]

Properties computed using the B3LYP density matrix

 Multipole Moments:

 ------------------------------------------------------------------------------------
     Multipole            Electronic (a.u.)      Nuclear  (a.u.)        Total (a.u.)
 ------------------------------------------------------------------------------------

 L = 1.  Multiply by 2.5417464519 to convert [e a0] to [Debye]
 Dipole X            :          0.0000000            0.0000000            0.0000000
 Dipole Y            :          0.0000000            0.0000000            0.0000000
 Dipole Z            :          0.0000000           -0.0000000           -0.0000000
 Magnitude           :                                                    0.0000000

 L = 2.  Multiply by 1.3450342976 to convert [e a0^2] to [Debye ang]
 Quadrupole XX       :        -10.1573531            0.0000000          -10.1573531
 Quadrupole XY       :          0.0000000            0.0000000            0.0000000
 Quadrupole XZ       :          0.0000000            0.0000000            0.0000000
 Quadrupole YY       :         -8.6631138            0.0000000           -8.6631138
 Quadrupole YZ       :          0.0000000            0.0000000            0.0000000
 Quadrupole ZZ       :        -23.8522351           11.1843648          -12.6678703
 Traceless XX        :          4.0668809           -3.7281216            0.3387593
 Traceless YY        :          5.5611202           -3.7281216            1.8329986
 Traceless ZZ        :         -9.6280011            7.4562432           -2.1717579

 ------------------------------------------------------------------------------------
  ==> Computing MBIS Charges <==

  Electron Count from Grid (Expected Number): 15.00000 (15.00000)
  Difference: -0.00000

  MBIS Charges: (a.u.)
   Center  Symbol  Z      Pop.       Charge
      1       N    7    7.500000   -0.500000
      2       N    7    7.500000   -0.500000

  MBIS Dipoles: [e a0]
   Center  Symbol  Z        X           Y           Z
      1       N    7   -0.000000    0.000000    0.283724
      2       N    7    0.000000   -0.000000   -0.283724

  MBIS Quadrupoles: [e a0^2]
   Center  Symbol  Z      XX        XY        XZ        YY        YZ        ZZ
      1       N    7   -5.0787   -0.0000   -0.0000   -4.3316   -0.0000   -5.4273
      2       N    7   -5.0787   -0.0000    0.0000   -4.3316    0.0000   -5.4273

  MBIS Octupoles: [e a0^3]
   Center  Symbol  Z      XXX       XXY       XXZ       XYY       XYZ       XZZ       YYY       YYZ       YZZ       ZZZ
      1       N    7   -0.0000    0.0000    0.8247    0.0000    0.0000    0.0000   -0.0000    0.3930   -0.0000    0.7192
      2       N    7    0.0000    0.0000   -0.8247    0.0000   -0.0000    0.0000   -0.0000   -0.3930   -0.0000   -0.7192

  MBIS Radial Moments:
   Center  Symbol  Z      [a0^2]      [a0^3]      [a0^4]
      1       N    7   14.837541   33.720116   91.511346
      2       N    7   14.837541   33.720116   91.511346

  MBIS Valence Widths: [a0]
   Center  Symbol  Z     Width
      1       N    7    0.460564
      2       N    7    0.460564

*** tstop() called on Mac.lan at Sun Aug 10 17:32:29 2025
Module time:
	user time   =       3.78 seconds =       0.06 minutes
	system time =       1.99 seconds =       0.03 minutes
	total time  =          0 seconds =       0.00 minutes
Total time:
	user time   =      15.99 seconds =       0.27 minutes
	system time =       4.32 seconds =       0.07 minutes
	total time  =          2 seconds =       0.03 minutes

    Psi4 stopped on: Sunday, 10 August 2025 05:32PM
    Psi4 wall time for execution: 0:00:01.98

*** Psi4 exiting successfully. Buy a developer a beer!
