                               Psi4 1.9.1 release

  ==> Input File <==

--------------------------------------------------------------------------
molecule {
-1 1
O           0.000000           0.000000           0.000000
H           0.000000           0.000000           0.909627
}

set {
basis              cc-pvtz
reference          uks
maxiter            500
DAMPING_PERCENTAGE 1
E_CONVERGENCE      1.0E-8
D_CONVERGENCE      1.0E-8
DIIS_MAX_VECS      400
MBIS_MAXITER       8000
guess              read
}

E, wfn = energy('b3lyp', restart_file='last_wfn', return_wfn=True)
properties('b3lyp','MBIS_CHARGES', wfn=wfn)
wfn.to_file('last_wfn')
--------------------------------------------------------------------------

    Molecular point group: c2v
  Charge       = -1
  Multiplicity = 1
  Basis Set: CC-PVTZ
    Blend: CC-PVTZ
  Basis Set: (CC-PVTZ AUX)
    Blend: CC-PVTZ-JKFIT
  @DF-UKS Final Energy:   -75.78675092470117
    Total Energy =                        -75.7867509247011668
 Dipole X            :          0.0000000            0.0000000            0.0000000
 Dipole Y            :          0.0000000            0.0000000            0.0000000
 Dipole Z            :         -0.3254328            0.8019425            0.4765097
 Magnitude           :                                                    0.4765097
    Molecular point group: c2v

    Geometry (in Angstrom), charge = -1, multiplicity = 1:

       Center              X                  Y                   Z               Mass
    ------------   -----------------  -----------------  -----------------  -----------------
         O            0.000000000000     0.000000000000    -0.053917479145    15.994914619570
         H            0.000000000000     0.000000000000     0.855709520855     1.007825032230

  Charge       = -1
  Multiplicity = 1
  Basis Set: CC-PVTZ
    Blend: CC-PVTZ
  Basis Set: (CC-PVTZ AUX)
    Blend: CC-PVTZ-JKFIT

    Orbital Energies [Eh]
    ---------------------

    Alpha Occupied:

       1A1   -18.659237     2A1    -0.532122     3A1    -0.025182
       1B2     0.119855     1B1     0.119855

    Alpha Virtual:

       4A1     0.320487     5A1     0.760923     6A1     0.851143
       2B2     0.947058     2B1     0.947058     3B1     1.065009
       3B2     1.065009     7A1     1.236666     8A1     1.711292
       1A2     1.887540     9A1     1.887540     4B1     2.210034
       4B2     2.210034    10A1     2.240019    11A1     2.896277
       2A2     3.619347    12A1     3.619347     5B2     3.816030
       5B1     3.816030     6B2     4.044653     6B1     4.044653
      13A1     4.146599     7B2     4.551585     7B1     4.551585
      14A1     4.919663    15A1     5.154543     8B2     5.589583
       8B1     5.589583    16A1     5.913345     3A2     5.913345
       4A2     6.680743    17A1     6.680743     9B1     6.861355
       9B2     6.861355    18A1     6.989366    10B1     7.232600
      10B2     7.232600    19A1     7.569294    20A1    11.203356

    Beta Occupied:

       1A1   -18.659237     2A1    -0.532122     3A1    -0.025182
       1B2     0.119855     1B1     0.119855

    Beta Virtual:

       4A1     0.320487     5A1     0.760923     6A1     0.851143
       2B2     0.947058     2B1     0.947058     3B1     1.065009
       3B2     1.065009     7A1     1.236666     8A1     1.711292
       1A2     1.887540     9A1     1.887540     4B1     2.210034
       4B2     2.210034    10A1     2.240019    11A1     2.896277
       2A2     3.619347    12A1     3.619347     5B2     3.816030
       5B1     3.816030     6B2     4.044653     6B1     4.044653
      13A1     4.146599     7B2     4.551585     7B1     4.551585
      14A1     4.919663    15A1     5.154543     8B2     5.589583
       8B1     5.589583    16A1     5.913345     3A2     5.913345
       4A2     6.680743    17A1     6.680743     9B1     6.861355
       9B2     6.861355    18A1     6.989366    10B1     7.232600
      10B2     7.232600    19A1     7.569294    20A1    11.203356

    Final Occupation by Irrep:
             A1    A2    B1    B2
    DOCC [     3,    0,    1,    1 ]
    SOCC [     0,    0,    0,    0 ]
    NA   [     3,    0,    1,    1 ]
    NB   [     3,    0,    1,    1 ]

  @DF-UKS Final Energy:   -75.78675092418163

   => Energetics <=

    Nuclear Repulsion Energy =              4.6540149812615503
    One-Electron Energy =                -117.5483698175953862
    Two-Electron Energy =                  44.5982121150894173
    DFT Exchange-Correlation Energy =      -7.4906082029372039
    Empirical Dispersion Energy =           0.0000000000000000
    VV10 Nonlocal Energy =                  0.0000000000000000
    Total Energy =                        -75.7867509241816322

  UHF NO Occupations:
  HONO-2 :    1 B1 2.0000000
  HONO-1 :    3 A1 2.0000000
  HONO-0 :    1 B2 2.0000000
  LUNO+0 :    4 A1 0.0000000
  LUNO+1 :    5 A1 0.0000000
  LUNO+2 :    6 A1 0.0000000
  LUNO+3 :    7 A1 0.0000000

Computation Completed

Properties will be evaluated at   0.000000,   0.000000,   0.000000 [a0]

Properties computed using the B3LYP density matrix

 Multipole Moments:

 ------------------------------------------------------------------------------------
     Multipole            Electronic (a.u.)      Nuclear  (a.u.)        Total (a.u.)
 ------------------------------------------------------------------------------------

 L = 1.  Multiply by 2.5417464519 to convert [e a0] to [Debye]
 Dipole X            :          0.0000000            0.0000000            0.0000000
 Dipole Y            :          0.0000000            0.0000000            0.0000000
 Dipole Z            :         -0.3254328            0.8019425            0.4765097
 Magnitude           :                                                    0.4765097

 L = 2.  Multiply by 1.3450342976 to convert [e a0^2] to [Debye ang]
 Quadrupole XX       :         -6.2536545            0.0000000           -6.2536545
 Quadrupole XY       :          0.0000000            0.0000000            0.0000000
 Quadrupole XZ       :          0.0000000            0.0000000            0.0000000
 Quadrupole YY       :         -6.2536545            0.0000000           -6.2536545
 Quadrupole YZ       :          0.0000000            0.0000000            0.0000000
 Quadrupole ZZ       :         -7.7933014            2.6979236           -5.0953778
 Traceless XX        :          0.5132156           -0.8993079           -0.3860922
 Traceless YY        :          0.5132156           -0.8993079           -0.3860922
 Traceless ZZ        :         -1.0264312            1.7986157            0.7721845

 ------------------------------------------------------------------------------------
  ==> Computing MBIS Charges <==

  Electron Count from Grid (Expected Number): 10.00000 (10.00000)
  Difference: -0.00000

  MBIS Charges: (a.u.)
   Center  Symbol  Z      Pop.       Charge
      1       O    8    9.282792   -1.282792
      2       H    1    0.717208    0.282792

  MBIS Dipoles: [e a0]
   Center  Symbol  Z        X           Y           Z
      1       O    8   -0.000000    0.000000   -0.123449
      2       H    1   -0.000000   -0.000000    0.011966

  MBIS Quadrupoles: [e a0^2]
   Center  Symbol  Z      XX        XY        XZ        YY        YZ        ZZ
      1       O    8   -5.8062   -0.0000    0.0000   -5.8062   -0.0000   -5.4379
      2       H    1   -0.4475   -0.0000   -0.0000   -0.4475   -0.0000   -0.4474

  MBIS Octupoles: [e a0^3]
   Center  Symbol  Z      XXX       XXY       XXZ       XYY       XYZ       XZZ       YYY       YYZ       YZZ       ZZZ
      1       O    8    0.0000   -0.0000   -0.1500    0.0000   -0.0000    0.0000   -0.0000   -0.1500   -0.0000   -0.8624
      2       H    1    0.0000   -0.0000    0.0014    0.0000    0.0000   -0.0000   -0.0000    0.0014   -0.0000   -0.0104

  MBIS Radial Moments:
   Center  Symbol  Z      [a0^2]      [a0^3]      [a0^4]
      1       O    8   17.050279   36.123083   90.525243
      2       H    1    1.342411    2.655776    6.241215

  MBIS Valence Widths: [a0]
   Center  Symbol  Z     Width
      1       O    8    0.433685
      2       H    1    0.393423

*** tstop() called on Mac.lan at Sun Aug 10 17:37:52 2025
Module time:
	user time   =       2.83 seconds =       0.05 minutes
	system time =       2.62 seconds =       0.04 minutes
	total time  =          1 seconds =       0.02 minutes
Total time:
	user time   =      13.50 seconds =       0.23 minutes
	system time =       4.94 seconds =       0.08 minutes
	total time  =          2 seconds =       0.03 minutes

    Psi4 stopped on: Sunday, 10 August 2025 05:37PM
    Psi4 wall time for execution: 0:00:01.81

*** Psi4 exiting successfully. Buy a developer a beer!
