                               Psi4 1.9.1 release

  ==> Input File <==

--------------------------------------------------------------------------
molecule {
-1 2
N           0.000000           0.000000           0.000000
N           0.000000           0.000000           0.499661
}

set {
basis              cc-pvtz
reference          uks
maxiter            500
DAMPING_PERCENTAGE 1
E_CONVERGENCE      1.0E-8
D_CONVERGENCE      1.0E-8
DIIS_MAX_VECS      400
MBIS_MAXITER       8000
guess              read
}

E, wfn = energy('b3lyp', restart_file='last_wfn', return_wfn=True)
properties('b3lyp','MBIS_CHARGES', wfn=wfn)
wfn.to_file('last_wfn')
--------------------------------------------------------------------------

    Molecular point group: d2h
  Charge       = -1
  Multiplicity = 2
  Basis Set: CC-PVTZ
    Blend: CC-PVTZ
  Basis Set: (CC-PVTZ AUX)
    Blend: CC-PVTZ-JKFIT
  @DF-UKS Final Energy:  -103.66073193870092
    Total Energy =                       -103.6607319387009198
 Dipole X            :          0.0000000            0.0000000            0.0000000
 Dipole Y            :          0.0000000            0.0000000            0.0000000
 Dipole Z            :          0.0000000            0.0000000            0.0000000
 Magnitude           :                                                    0.0000000
    Molecular point group: d2h

    Geometry (in Angstrom), charge = -1, multiplicity = 2:

       Center              X                  Y                   Z               Mass
    ------------   -----------------  -----------------  -----------------  -----------------
         N            0.000000000000     0.000000000000    -0.249830500000    14.003074004430
         N            0.000000000000     0.000000000000     0.249830500000    14.003074004430

  Charge       = -1
  Multiplicity = 2
  Basis Set: CC-PVTZ
    Blend: CC-PVTZ
  Basis Set: (CC-PVTZ AUX)
    Blend: CC-PVTZ-JKFIT

    Orbital Energies [Eh]
    ---------------------

    Alpha Occupied:

       1Ag   -14.747080     1B1u  -14.061597     2Ag    -0.686764
       1B2u   -0.631100     1B3u   -0.627481     2B1u   -0.052760
       3Ag    -0.012765     1B2g    0.462644

    Alpha Virtual:

       2B3u    0.524266     2B2u    0.529213     3B1u    0.530192
       1B3g    0.536037     4Ag     0.614915     5Ag     0.832250
       2B2g    1.066440     2B3g    1.078737     1B1g    1.159794
       6Ag     1.160366     4B1u    1.241139     3B3u    1.720139
       3B2u    1.720863     1Au     1.724328     5B1u    1.726702
       6B1u    1.807941     7Ag     1.823457     3B2g    2.158738
       3B3g    2.163654     4B2u    2.475926     4B3u    2.481655
       8Ag     3.263415     5B3u    3.799660     5B2u    3.799678
       7B1u    3.822450     2B1g    3.909993     9Ag     3.910251
       4B2g    4.191223     4B3g    4.191564     8B1u    4.302224
       2Au     4.360374     9B1u    4.361538     6B3u    4.379059
       6B2u    4.379943    10Ag     4.966476     5B2g    5.031811
       5B3g    5.031844     3B1g    5.091090    11Ag     5.091405
       6B3g    5.203394     6B2g    5.204759    12Ag     5.280036
      10B1u    6.807874    13Ag     7.307073     7B2u    7.701152
       7B3u    7.703284     3Au     7.762890    11B1u    7.763387
       7B2g    9.815625     7B3g    9.815944    12B1u   12.363291
      13B1u   32.852505

    Beta Occupied:

       1Ag   -14.747125     1B1u  -14.061403     2Ag    -0.682631
       1B2u   -0.630701     1B3u   -0.619220     2B1u   -0.038911
       3Ag    -0.008711

    Beta Virtual:

       2B2u    0.533611     3B1u    0.545331     1B3g    0.549076
       2B3u    0.555072     1B2g    0.567766     4Ag     0.630504
       5Ag     0.836279     2B3g    1.084709     2B2g    1.100466
       1B1g    1.165991     6Ag     1.166400     4B1u    1.263377
       3B2u    1.722014     3B3u    1.741821     5B1u    1.749871
       1Au     1.750228     6B1u    1.815116     7Ag     1.825858
       3B3g    2.167105     3B2g    2.182516     4B2u    2.477534
       4B3u    2.491999     8Ag     3.269285     5B2u    3.803750
       5B3u    3.803752     7B1u    3.831070     2B1g    3.913460
       9Ag     3.913564     4B3g    4.193747     4B2g    4.208893
       8B1u    4.303865     2Au     4.374616     9B1u    4.375120
       6B2u    4.378669     6B3u    4.390687    10Ag     4.970942
       5B3g    5.042912     5B2g    5.042923     3B1g    5.098595
      11Ag     5.099152     6B3g    5.203258     6B2g    5.216166
      12Ag     5.282486    10B1u    6.811377    13Ag     7.307881
       7B2u    7.700605     7B3u    7.710382     3Au     7.771008
      11B1u    7.771041     7B3g    9.816368     7B2g    9.825695
      12B1u   12.363374    13B1u   32.853857

    Final Occupation by Irrep:
             Ag   B1g   B2g   B3g    Au   B1u   B2u   B3u
    DOCC [     3,    0,    0,    0,    0,    2,    1,    1 ]
    SOCC [     0,    0,    1,    0,    0,    0,    0,    0 ]
    NA   [     3,    0,    1,    0,    0,    2,    1,    1 ]
    NB   [     3,    0,    0,    0,    0,    2,    1,    1 ]

  @DF-UKS Final Energy:  -103.66073193923920

   => Energetics <=

    Nuclear Repulsion Energy =             51.8945511513406004
    One-Electron Energy =                -241.0137669992110716
    Two-Electron Energy =                  97.9534923786597176
    DFT Exchange-Correlation Energy =     -12.4950084700284503
    Empirical Dispersion Energy =           0.0000000000000000
    VV10 Nonlocal Energy =                  0.0000000000000000
    Total Energy =                       -103.6607319392391986

  UHF NO Occupations:
  HONO-2 :    3 Ag 1.9998602
  HONO-1 :    2B1u 1.9998166
  HONO-0 :    1B2g 1.0000000
  LUNO+0 :    3B1u 0.0001834
  LUNO+1 :    4 Ag 0.0001398
  LUNO+2 :    2B3u 0.0000311
  LUNO+3 :    5 Ag 0.0000031

Computation Completed

Properties will be evaluated at   0.000000,   0.000000,   0.000000 [a0]

Properties computed using the B3LYP density matrix

 Multipole Moments:

 ------------------------------------------------------------------------------------
     Multipole            Electronic (a.u.)      Nuclear  (a.u.)        Total (a.u.)
 ------------------------------------------------------------------------------------

 L = 1.  Multiply by 2.5417464519 to convert [e a0] to [Debye]
 Dipole X            :          0.0000000            0.0000000            0.0000000
 Dipole Y            :          0.0000000            0.0000000            0.0000000
 Dipole Z            :          0.0000000            0.0000000            0.0000000
 Magnitude           :                                                    0.0000000

 L = 2.  Multiply by 1.3450342976 to convert [e a0^2] to [Debye ang]
 Quadrupole XX       :        -10.5087354            0.0000000          -10.5087354
 Quadrupole XY       :          0.0000000            0.0000000            0.0000000
 Quadrupole XZ       :          0.0000000            0.0000000            0.0000000
 Quadrupole YY       :         -7.4298121            0.0000000           -7.4298121
 Quadrupole YZ       :          0.0000000            0.0000000            0.0000000
 Quadrupole ZZ       :        -16.7190229            3.1204461          -13.5985768
 Traceless XX        :          1.0437881           -1.0401487            0.0036394
 Traceless YY        :          4.1227113           -1.0401487            3.0825626
 Traceless ZZ        :         -5.1664994            2.0802974           -3.0862020

 ------------------------------------------------------------------------------------
  ==> Computing MBIS Charges <==

  Electron Count from Grid (Expected Number): 15.00000 (15.00000)
  Difference: -0.00000

  MBIS Charges: (a.u.)
   Center  Symbol  Z      Pop.       Charge
      1       N    7    7.500000   -0.500000
      2       N    7    7.500000   -0.500000

  MBIS Dipoles: [e a0]
   Center  Symbol  Z        X           Y           Z
      1       N    7    0.000000    0.000000    0.375314
      2       N    7    0.000000    0.000000   -0.375314

  MBIS Quadrupoles: [e a0^2]
   Center  Symbol  Z      XX        XY        XZ        YY        YZ        ZZ
      1       N    7   -5.2544   -0.0000   -0.0000   -3.7149   -0.0000   -6.3335
      2       N    7   -5.2544   -0.0000    0.0000   -3.7149    0.0000   -6.3335

  MBIS Octupoles: [e a0^3]
   Center  Symbol  Z      XXX       XXY       XXZ       XYY       XYZ       XZZ       YYY       YYZ       YZZ       ZZZ
      1       N    7    0.0000    0.0000    1.6854    0.0000    0.0000    0.0000    0.0000    0.7457    0.0000    1.8187
      2       N    7    0.0000    0.0000   -1.6854    0.0000   -0.0000    0.0000    0.0000   -0.7457    0.0000   -1.8187

  MBIS Radial Moments:
   Center  Symbol  Z      [a0^2]      [a0^3]      [a0^4]
      1       N    7   15.302737   39.165322   121.976067
      2       N    7   15.302737   39.165322   121.976067

  MBIS Valence Widths: [a0]
   Center  Symbol  Z     Width
      1       N    7    0.458323
      2       N    7    0.458323

*** tstop() called on Mac.lan at Sun Aug 10 17:33:12 2025
Module time:
	user time   =       3.67 seconds =       0.06 minutes
	system time =       3.20 seconds =       0.05 minutes
	total time  =          1 seconds =       0.02 minutes
Total time:
	user time   =      17.36 seconds =       0.29 minutes
	system time =       5.10 seconds =       0.08 minutes
	total time  =          2 seconds =       0.03 minutes

    Psi4 stopped on: Sunday, 10 August 2025 05:33PM
    Psi4 wall time for execution: 0:00:02.18

*** Psi4 exiting successfully. Buy a developer a beer!
