                               Psi4 1.9.1 release

  ==> Input File <==

--------------------------------------------------------------------------
molecule {
-1 2
O           0.000000           0.000000           0.000000
C           0.000000           0.000000           1.087817
}

set {
basis              cc-pvtz
reference          uks
maxiter            500
DAMPING_PERCENTAGE 1
E_CONVERGENCE      1.0E-8
D_CONVERGENCE      1.0E-8
DIIS_MAX_VECS      400
MBIS_MAXITER       8000
guess              read
}

E, wfn = energy('b3lyp', restart_file='last_wfn', return_wfn=True)
properties('b3lyp','MBIS_CHARGES', wfn=wfn)
wfn.to_file('last_wfn')
--------------------------------------------------------------------------

    Molecular point group: c2v
  Charge       = -1
  Multiplicity = 2
  Basis Set: CC-PVTZ
    Blend: CC-PVTZ
  Basis Set: (CC-PVTZ AUX)
    Blend: CC-PVTZ-JKFIT
  @DF-UKS Final Energy:  -113.25382338484199
    Total Energy =                       -113.2538233848419935
 Dipole X            :          0.0000000            0.0000000            0.0000000
 Dipole Y            :          0.0000000            0.0000000            0.0000000
 Dipole Z            :         -0.9869593           -0.0022405           -0.9891998
 Magnitude           :                                                    0.9891998
    Molecular point group: c2v

    Geometry (in Angstrom), charge = -1, multiplicity = 2:

       Center              X                  Y                   Z               Mass
    ------------   -----------------  -----------------  -----------------  -----------------
         O            0.000000000000     0.000000000000    -0.466291974003    15.994914619570
         C            0.000000000000     0.000000000000     0.621525025997    12.000000000000

  Charge       = -1
  Multiplicity = 2
  Basis Set: CC-PVTZ
    Blend: CC-PVTZ
  Basis Set: (CC-PVTZ AUX)
    Blend: CC-PVTZ-JKFIT

    Orbital Energies [Eh]
    ---------------------

    Alpha Occupied:

       1A1   -18.857460     2A1    -9.890299     3A1    -0.836370
       4A1    -0.248475     1B1    -0.168951     1B2    -0.154464
       5A1    -0.048948     2B1     0.215748

    Alpha Virtual:

       2B2     0.296539     6A1     0.406605     3B1     0.554035
       3B2     0.566472     7A1     0.571019     8A1     0.809991
       4B1     0.880158     4B2     0.883849     1A2     0.938399
       9A1     0.940517    10A1     0.967198     5B1     1.180047
       5B2     1.182609    11A1     1.422409    12A1     1.686950
       2A2     1.825559    13A1     1.826432     6B1     2.226192
       6B2     2.231293    14A1     2.232172     7B1     2.289819
       7B2     2.293547    15A1     2.819598     8B1     2.971995
       8B2     2.972385     3A2     3.174892    16A1     3.176447
       4A2     3.275412    17A1     3.278635     9B1     3.313718
       9B2     3.317778    18A1     3.410312    10B1     3.590865
      10B2     3.594677    19A1     3.770941    11B2     4.437743
      11B1     4.438391    20A1     4.903617    12B1     5.413101
      12B2     5.413146     5A2     5.873528    21A1     5.874115
      22A1     6.477468     6A2     6.566002    23A1     6.567091
      13B1     6.687623    13B2     6.688324    14B1     7.059695
      14B2     7.059799    24A1     7.123066    25A1     7.499682
      26A1    13.140180

    Beta Occupied:

       1A1   -18.849238     2A1    -9.882860     3A1    -0.822659
       4A1    -0.230470     1B2    -0.148234     1B1    -0.121970
       5A1    -0.023253

    Beta Virtual:

       2B2     0.306223     2B1     0.334034     6A1     0.410539
       3B2     0.572390     7A1     0.585822     3B1     0.595084
       8A1     0.816244     4B2     0.886789     4B1     0.901378
       9A1     0.961348     1A2     0.964751    10A1     0.985550
       5B2     1.184685     5B1     1.209127    11A1     1.429122
      12A1     1.698553     2A2     1.841323    13A1     1.841468
       6B2     2.234426    14A1     2.246609     6B1     2.254871
       7B2     2.299633     7B1     2.326486    15A1     2.829034
       8B2     3.003849     8B1     3.003920     3A2     3.195066
      16A1     3.195128    17A1     3.312012     4A2     3.313199
       9B2     3.319023     9B1     3.345889    18A1     3.421853
      10B2     3.599060    10B1     3.623193    19A1     3.781909
      11B2     4.441615    11B1     4.464993    20A1     4.914529
      12B2     5.430795    12B1     5.430798     5A2     5.887227
      21A1     5.887263    22A1     6.483535    23A1     6.594256
       6A2     6.594359    13B2     6.691832    13B1     6.713804
      14B2     7.062508    14B1     7.082927    24A1     7.136098
      25A1     7.509879    26A1    13.152769

    Final Occupation by Irrep:
             A1    A2    B1    B2
    DOCC [     5,    0,    1,    1 ]
    SOCC [     0,    0,    1,    0 ]
    NA   [     5,    0,    2,    1 ]
    NB   [     5,    0,    1,    1 ]

  @DF-UKS Final Energy:  -113.25382338455263

   => Energetics <=

    Nuclear Repulsion Energy =             23.3499808443515775
    One-Electron Energy =                -204.8482558368545483
    Two-Electron Energy =                  79.7780427110571679
    DFT Exchange-Correlation Energy =     -11.5335911031068452
    Empirical Dispersion Energy =           0.0000000000000000
    VV10 Nonlocal Energy =                  0.0000000000000000
    Total Energy =                       -113.2538233845526321

  UHF NO Occupations:
  HONO-2 :    1 B1 1.9996005
  HONO-1 :    5 A1 1.9994527
  HONO-0 :    2 B1 1.0000000
  LUNO+0 :    6 A1 0.0005473
  LUNO+1 :    3 B1 0.0003995
  LUNO+2 :    7 A1 0.0000565
  LUNO+3 :    2 B2 0.0000188

Computation Completed

Properties will be evaluated at   0.000000,   0.000000,   0.000000 [a0]

Properties computed using the B3LYP density matrix

 Multipole Moments:

 ------------------------------------------------------------------------------------
     Multipole            Electronic (a.u.)      Nuclear  (a.u.)        Total (a.u.)
 ------------------------------------------------------------------------------------

 L = 1.  Multiply by 2.5417464519 to convert [e a0] to [Debye]
 Dipole X            :          0.0000000            0.0000000            0.0000000
 Dipole Y            :          0.0000000            0.0000000            0.0000000
 Dipole Z            :         -0.9869593           -0.0022405           -0.9891998
 Magnitude           :                                                    0.9891998

 L = 2.  Multiply by 1.3450342976 to convert [e a0^2] to [Debye ang]
 Quadrupole XX       :        -11.5549212            0.0000000          -11.5549212
 Quadrupole XY       :          0.0000000            0.0000000            0.0000000
 Quadrupole XZ       :          0.0000000            0.0000000            0.0000000
 Quadrupole YY       :         -9.4639932            0.0000000           -9.4639932
 Quadrupole YZ       :          0.0000000            0.0000000            0.0000000
 Quadrupole ZZ       :        -27.9717117           14.4884735          -13.4832382
 Traceless XX        :          4.7752875           -4.8294912           -0.0542037
 Traceless YY        :          6.8662155           -4.8294912            2.0367243
 Traceless ZZ        :        -11.6415030            9.6589823           -1.9825206

 ------------------------------------------------------------------------------------
  ==> Computing MBIS Charges <==

  Electron Count from Grid (Expected Number): 15.00000 (15.00000)
  Difference:  0.00000

  MBIS Charges: (a.u.)
   Center  Symbol  Z      Pop.       Charge
      1       O    8    8.223431   -0.223431
      2       C    6    6.776570   -0.776570

  MBIS Dipoles: [e a0]
   Center  Symbol  Z        X           Y           Z
      1       O    8    0.000000   -0.000000    0.101069
      2       C    6   -0.000000    0.000000   -0.375057

  MBIS Quadrupoles: [e a0^2]
   Center  Symbol  Z      XX        XY        XZ        YY        YZ        ZZ
      1       O    8   -3.8335   -0.0000   -0.0000   -3.6173    0.0000   -4.0603
      2       C    6   -7.7214    0.0000    0.0000   -5.8467    0.0000   -7.1191

  MBIS Octupoles: [e a0^3]
   Center  Symbol  Z      XXX       XXY       XXZ       XYY       XYZ       XZZ       YYY       YYZ       YZZ       ZZZ
      1       O    8   -0.0000    0.0000    0.1277   -0.0000    0.0000   -0.0000   -0.0000    0.1772    0.0000    0.2623
      2       C    6   -0.0000    0.0000   -1.5424   -0.0000    0.0000   -0.0000    0.0000   -0.4554    0.0000   -0.4189

  MBIS Radial Moments:
   Center  Symbol  Z      [a0^2]      [a0^3]      [a0^4]
      1       O    8   11.511046   21.507940   48.360469
      2       C    6   20.687229   58.388757   193.089445

  MBIS Valence Widths: [a0]
   Center  Symbol  Z     Width
      1       O    8    0.382416
      2       C    6    0.587493

*** tstop() called on Mac.lan at Sun Aug 10 17:41:46 2025
Module time:
	user time   =       3.17 seconds =       0.05 minutes
	system time =       2.58 seconds =       0.04 minutes
	total time  =          1 seconds =       0.02 minutes
Total time:
	user time   =      19.08 seconds =       0.32 minutes
	system time =       4.86 seconds =       0.08 minutes
	total time  =          2 seconds =       0.03 minutes

    Psi4 stopped on: Sunday, 10 August 2025 05:41PM
    Psi4 wall time for execution: 0:00:02.31

*** Psi4 exiting successfully. Buy a developer a beer!
