                               Psi4 1.9.1 release

  ==> Input File <==

--------------------------------------------------------------------------
molecule {
-1 2
C           0.000000           0.000000           0.000000
C           0.000000           0.000000           0.646208
}

set {
basis              cc-pvtz
reference          uks
maxiter            500
DAMPING_PERCENTAGE 1
E_CONVERGENCE      1.0E-8
D_CONVERGENCE      1.0E-8
DIIS_MAX_VECS      400
MBIS_MAXITER       8000
guess              read
}

E, wfn = energy('b3lyp', restart_file='last_wfn', return_wfn=True)
properties('b3lyp','MBIS_CHARGES', wfn=wfn)
wfn.to_file('last_wfn')
--------------------------------------------------------------------------

    Molecular point group: d2h
  Charge       = -1
  Multiplicity = 2
  Basis Set: CC-PVTZ
    Blend: CC-PVTZ
  Basis Set: (CC-PVTZ AUX)
    Blend: CC-PVTZ-JKFIT
  @DF-UKS Final Energy:   -73.90470679787589
    Total Energy =                        -73.9047067978758889
 Dipole X            :          0.0000000            0.0000000            0.0000000
 Dipole Y            :          0.0000000            0.0000000            0.0000000
 Dipole Z            :          0.0000000            0.0000000            0.0000000
 Magnitude           :                                                    0.0000000
    Molecular point group: d2h

    Geometry (in Angstrom), charge = -1, multiplicity = 2:

       Center              X                  Y                   Z               Mass
    ------------   -----------------  -----------------  -----------------  -----------------
         C            0.000000000000     0.000000000000    -0.323104000000    12.000000000000
         C            0.000000000000     0.000000000000     0.323104000000    12.000000000000

  Charge       = -1
  Multiplicity = 2
  Basis Set: CC-PVTZ
    Blend: CC-PVTZ
  Basis Set: (CC-PVTZ AUX)
    Blend: CC-PVTZ-JKFIT

    Orbital Energies [Eh]
    ---------------------

    Alpha Occupied:

       1Ag   -10.156481     1B1u   -9.853895     2Ag    -0.386637
       1B2u   -0.214867     1B3u   -0.214867     2B1u    0.028689
       3Ag     0.047358

    Alpha Virtual:

       3B1u    0.406641     1B3g    0.429275     1B2g    0.429275
       2B2u    0.459589     2B3u    0.459589     4Ag     0.478473
       5Ag     0.685870     2B3g    0.833876     2B2g    0.833876
       1B1g    0.909996     6Ag     0.909996     4B1u    0.966414
       3B2u    1.248796     3B3u    1.248796     5B1u    1.272010
       1Au     1.272010     6B1u    1.290210     7Ag     1.341701
       3B3g    1.558857     3B2g    1.558857     4B2u    1.919794
       4B3u    1.919794     8Ag     2.434700     7B1u    2.785968
       5B3u    2.800998     5B2u    2.800998     2B1g    2.832229
       9Ag     2.832229     4B3g    2.950494     4B2g    2.950494
       8B1u    3.049672     6B3u    3.103244     6B2u    3.103244
       9B1u    3.149201     2Au     3.149201    10Ag     3.462492
       3B1g    3.605654    11Ag     3.605654     5B2g    3.613636
       5B3g    3.613636     6B3g    3.661218     6B2g    3.661218
      12Ag     3.914994    10B1u    4.587496    13Ag     5.178612
       7B3u    5.236560     7B2u    5.236560     3Au     5.278943
      11B1u    5.278943     7B3g    6.607539     7B2g    6.607539
      12B1u    8.162464    13B1u   21.570065

    Beta Occupied:

       1Ag   -10.127228     1B1u   -9.832020     2Ag    -0.345631
       1B2u   -0.195220     1B3u   -0.195220     2B1u    0.077898

    Beta Virtual:

       3Ag     0.214390     3B1u    0.419344     1B3g    0.434957
       1B2g    0.434957     2B2u    0.466046     2B3u    0.466046
       4Ag     0.512203     5Ag     0.705362     2B3g    0.846477
       2B2g    0.846477     6Ag     0.909592     1B1g    0.909592
       4B1u    0.985541     3B2u    1.266851     3B3u    1.266851
       5B1u    1.275900     1Au     1.275900     6B1u    1.309791
       7Ag     1.386063     3B3g    1.571297     3B2g    1.571297
       4B2u    1.935204     4B3u    1.935204     8Ag     2.467664
       5B3u    2.800294     5B2u    2.800294     7B1u    2.839290
       9Ag     2.844587     2B1g    2.844587     4B3g    2.960926
       4B2g    2.960926     8B1u    3.083987     6B3u    3.147784
       6B2u    3.147784     9B1u    3.161119     2Au     3.161119
      10Ag     3.498747     5B2g    3.613306     5B3g    3.613306
       3B1g    3.619662    11Ag     3.619662     6B3g    3.692581
       6B2g    3.692581    12Ag     3.942401    10B1u    4.616201
      13Ag     5.240001     7B3u    5.267723     7B2u    5.267723
       3Au     5.285384    11B1u    5.285384     7B3g    6.628770
       7B2g    6.628770    12B1u    8.224315    13B1u   21.592826

    Final Occupation by Irrep:
             Ag   B1g   B2g   B3g    Au   B1u   B2u   B3u
    DOCC [     2,    0,    0,    0,    0,    2,    1,    1 ]
    SOCC [     1,    0,    0,    0,    0,    0,    0,    0 ]
    NA   [     3,    0,    0,    0,    0,    2,    1,    1 ]
    NB   [     2,    0,    0,    0,    0,    2,    1,    1 ]

  @DF-UKS Final Energy:   -73.90470679847296

   => Energetics <=

    Nuclear Repulsion Energy =             29.4802595822397784
    One-Electron Energy =                -158.5728744425549621
    Two-Electron Energy =                  64.6880479290397972
    DFT Exchange-Correlation Energy =      -9.5001398671975661
    Empirical Dispersion Energy =           0.0000000000000000
    VV10 Nonlocal Energy =                  0.0000000000000000
    Total Energy =                        -73.9047067984729580

  UHF NO Occupations:
  HONO-2 :    2 Ag 1.9994698
  HONO-1 :    2B1u 1.9980985
  HONO-0 :    3 Ag 1.0000000
  LUNO+0 :    3B1u 0.0019015
  LUNO+1 :    4 Ag 0.0005302
  LUNO+2 :    2B3u 0.0001345
  LUNO+3 :    2B2u 0.0001345

Computation Completed

Properties will be evaluated at   0.000000,   0.000000,   0.000000 [a0]

Properties computed using the B3LYP density matrix

 Multipole Moments:

 ------------------------------------------------------------------------------------
     Multipole            Electronic (a.u.)      Nuclear  (a.u.)        Total (a.u.)
 ------------------------------------------------------------------------------------

 L = 1.  Multiply by 2.5417464519 to convert [e a0] to [Debye]
 Dipole X            :          0.0000000            0.0000000            0.0000000
 Dipole Y            :          0.0000000            0.0000000            0.0000000
 Dipole Z            :          0.0000000            0.0000000            0.0000000
 Magnitude           :                                                    0.0000000

 L = 2.  Multiply by 1.3450342976 to convert [e a0^2] to [Debye ang]
 Quadrupole XX       :         -8.9443390            0.0000000           -8.9443390
 Quadrupole XY       :          0.0000000            0.0000000            0.0000000
 Quadrupole XZ       :          0.0000000            0.0000000            0.0000000
 Quadrupole YY       :         -8.9443390            0.0000000           -8.9443390
 Quadrupole YZ       :          0.0000000            0.0000000            0.0000000
 Quadrupole ZZ       :        -18.2618974            4.4736670          -13.7882304
 Traceless XX        :          3.1058528           -1.4912223            1.6146305
 Traceless YY        :          3.1058528           -1.4912223            1.6146305
 Traceless ZZ        :         -6.2117056            2.9824446           -3.2292610

 ------------------------------------------------------------------------------------
  ==> Computing MBIS Charges <==

  Electron Count from Grid (Expected Number): 13.00000 (13.00000)
  Difference:  0.00000

  MBIS Charges: (a.u.)
   Center  Symbol  Z      Pop.       Charge
      1       C    6    6.500001   -0.500001
      2       C    6    6.500001   -0.500001

  MBIS Dipoles: [e a0]
   Center  Symbol  Z        X           Y           Z
      1       C    6   -0.000000   -0.000000    0.246441
      2       C    6   -0.000000   -0.000000   -0.246441

  MBIS Quadrupoles: [e a0^2]
   Center  Symbol  Z      XX        XY        XZ        YY        YZ        ZZ
      1       C    6   -4.4722    0.0000    0.0000   -4.4722    0.0000   -6.4068
      2       C    6   -4.4722    0.0000   -0.0000   -4.4722   -0.0000   -6.4068

  MBIS Octupoles: [e a0^3]
   Center  Symbol  Z      XXX       XXY       XXZ       XYY       XYZ       XZZ       YYY       YYZ       YZZ       ZZZ
      1       C    6   -0.0000   -0.0000    0.8441   -0.0000    0.0000   -0.0000    0.0000    0.8441   -0.0000    3.2444
      2       C    6   -0.0000   -0.0000   -0.8441   -0.0000    0.0000   -0.0000    0.0000   -0.8441   -0.0000   -3.2444

  MBIS Radial Moments:
   Center  Symbol  Z      [a0^2]      [a0^3]      [a0^4]
      1       C    6   15.351108   40.688127   132.189711
      2       C    6   15.351108   40.688127   132.189711

  MBIS Valence Widths: [a0]
   Center  Symbol  Z     Width
      1       C    6    0.508483
      2       C    6    0.508483

*** tstop() called on Mac.lan at Sun Aug 10 17:30:14 2025
Module time:
	user time   =       3.40 seconds =       0.06 minutes
	system time =       2.62 seconds =       0.04 minutes
	total time  =          1 seconds =       0.02 minutes
Total time:
	user time   =      16.83 seconds =       0.28 minutes
	system time =       4.67 seconds =       0.08 minutes
	total time  =          2 seconds =       0.03 minutes

    Psi4 stopped on: Sunday, 10 August 2025 05:30PM
    Psi4 wall time for execution: 0:00:02.08

*** Psi4 exiting successfully. Buy a developer a beer!
