                               Psi4 1.9.1 release

  ==> Input File <==

--------------------------------------------------------------------------
molecule {
-1 3
O           0.000000           0.000000           0.000000
N           0.000000           0.000000           0.444146
}

set {
basis              cc-pvtz
reference          uks
maxiter            500
DAMPING_PERCENTAGE 1
E_CONVERGENCE      1.0E-8
D_CONVERGENCE      1.0E-8
DIIS_MAX_VECS      400
MBIS_MAXITER       8000
guess              read
}

E, wfn = energy('b3lyp', restart_file='last_wfn', return_wfn=True)
properties('b3lyp','MBIS_CHARGES', wfn=wfn)
wfn.to_file('last_wfn')
--------------------------------------------------------------------------

    Molecular point group: c2v
  Charge       = -1
  Multiplicity = 3
  Basis Set: CC-PVTZ
    Blend: CC-PVTZ
  Basis Set: (CC-PVTZ AUX)
    Blend: CC-PVTZ-JKFIT
  @DF-UKS Final Energy:  -120.99398786332280
    Total Energy =                       -120.9939878633228005
 Dipole X            :          0.0000000            0.0000000            0.0000000
 Dipole Y            :          0.0000000            0.0000000            0.0000000
 Dipole Z            :         -1.8303260           -0.0016840           -1.8320101
 Magnitude           :                                                    1.8320101
    Molecular point group: c2v

    Geometry (in Angstrom), charge = -1, multiplicity = 3:

       Center              X                  Y                   Z               Mass
    ------------   -----------------  -----------------  -----------------  -----------------
         O            0.000000000000     0.000000000000    -0.207327544014    15.994914619570
         N            0.000000000000     0.000000000000     0.236818455986    14.003074004430

  Charge       = -1
  Multiplicity = 3
  Basis Set: CC-PVTZ
    Blend: CC-PVTZ
  Basis Set: (CC-PVTZ AUX)
    Blend: CC-PVTZ-JKFIT

    Orbital Energies [Eh]
    ---------------------

    Alpha Occupied:

       1A1   -19.675908     2A1   -14.826027     1B2    -1.060444
       1B1    -1.060444     3A1    -1.028634     4A1    -0.252967
       5A1    -0.150462     2B1     0.382205     2B2     0.382205

    Alpha Virtual:

       6A1     0.389232     3B2     0.579303     3B1     0.579303
       7A1     0.629661     8A1     0.794900     4B1     1.116989
       4B2     1.116989     9A1     1.134756     1A2     1.134756
      10A1     1.549965    11A1     1.865528     5B1     1.866802
       5B2     1.866802     6B2     1.929902     6B1     1.929902
      12A1     2.010759     2A2     2.010759    13A1     2.152454
       7B2     3.168582     7B1     3.168582    14A1     3.171060
       8B1     3.938455     8B2     3.938455    15A1     4.186047
      16A1     4.203395     3A2     4.203396     9B2     4.462421
       9B1     4.462421    17A1     4.592157    18A1     4.689845
       4A2     4.689845    10B2     4.852199    10B1     4.852199
      19A1     5.903071    11B1     5.949987    11B2     5.949987
       5A2     6.081077    20A1     6.081077    12B2     6.085128
      12B1     6.085128    21A1     7.158283    22A1     7.839717
      13B1     8.642806    13B2     8.642806     6A2     9.104115
      23A1     9.104116    24A1     9.335747    14B2    10.895201
      14B1    10.895201    25A1    13.951085    26A1    34.791001

    Beta Occupied:

       1A1   -19.669031     2A1   -14.826082     1B2    -1.047496
       1B1    -1.047496     3A1    -1.019779     4A1    -0.248798
       5A1    -0.139642

    Beta Virtual:

       6A1     0.438215     2B2     0.518029     2B1     0.518029
       3B2     0.595745     3B1     0.595745     7A1     0.659299
       8A1     0.834622     4B1     1.133393     4B2     1.133393
       9A1     1.174105     1A2     1.174105    10A1     1.573402
      11A1     1.873195     5B1     1.895743     5B2     1.895743
       6B2     1.949123     6B1     1.949123    12A1     2.043009
       2A2     2.043009    13A1     2.157836     7B2     3.174762
       7B1     3.174762    14A1     3.183627     8B1     3.944580
       8B2     3.944580    15A1     4.190721    16A1     4.213231
       3A2     4.213231     9B2     4.479176     9B1     4.479176
      17A1     4.593792    18A1     4.700893     4A2     4.700893
      10B2     4.860750    10B1     4.860750    19A1     5.907480
      11B1     5.954826    11B2     5.954826     5A2     6.087572
      20A1     6.087572    12B2     6.088738    12B1     6.088738
      21A1     7.162559    22A1     7.851563    13B1     8.650133
      13B2     8.650133     6A2     9.114345    23A1     9.114345
      24A1     9.340701    14B2    10.902954    14B1    10.902954
      25A1    13.952323    26A1    34.796309

    Final Occupation by Irrep:
             A1    A2    B1    B2
    DOCC [     5,    0,    1,    1 ]
    SOCC [     0,    0,    1,    1 ]
    NA   [     5,    0,    2,    2 ]
    NB   [     5,    0,    1,    1 ]

  @DF-UKS Final Energy:  -120.99398786343443

   => Energetics <=

    Nuclear Repulsion Energy =             66.7211317844132310
    One-Electron Energy =                -290.0807276164126733
    Two-Electron Energy =                 116.4338270731830249
    DFT Exchange-Correlation Energy =     -14.0682191046180005
    Empirical Dispersion Energy =           0.0000000000000000
    VV10 Nonlocal Energy =                  0.0000000000000000
    Total Energy =                       -120.9939878634344268

  UHF NO Occupations:
  HONO-2 :    5 A1 1.9985298
  HONO-1 :    2 B2 1.0000000
  HONO-0 :    2 B1 1.0000000
  LUNO+0 :    6 A1 0.0014702
  LUNO+1 :    3 B1 0.0000100
  LUNO+2 :    3 B2 0.0000100
  LUNO+3 :    7 A1 0.0000094

Computation Completed

Properties will be evaluated at   0.000000,   0.000000,   0.000000 [a0]

Properties computed using the B3LYP density matrix

 Multipole Moments:

 ------------------------------------------------------------------------------------
     Multipole            Electronic (a.u.)      Nuclear  (a.u.)        Total (a.u.)
 ------------------------------------------------------------------------------------

 L = 1.  Multiply by 2.5417464519 to convert [e a0] to [Debye]
 Dipole X            :          0.0000000            0.0000000            0.0000000
 Dipole Y            :          0.0000000            0.0000000            0.0000000
 Dipole Z            :         -1.8303260           -0.0016840           -1.8320101
 Magnitude           :                                                    1.8320101

 L = 2.  Multiply by 1.3450342976 to convert [e a0^2] to [Debye ang]
 Quadrupole XX       :        -11.5116076            0.0000000          -11.5116076
 Quadrupole XY       :          0.0000000            0.0000000            0.0000000
 Quadrupole XZ       :          0.0000000            0.0000000            0.0000000
 Quadrupole YY       :        -11.5116076            0.0000000          -11.5116076
 Quadrupole YZ       :          0.0000000            0.0000000            0.0000000
 Quadrupole ZZ       :        -13.3214010            2.6299412          -10.6914597
 Traceless XX        :          0.6032645           -0.8766471           -0.2733826
 Traceless YY        :          0.6032645           -0.8766471           -0.2733826
 Traceless ZZ        :         -1.2065289            1.7532942            0.5467653

 ------------------------------------------------------------------------------------
  ==> Computing MBIS Charges <==

  Electron Count from Grid (Expected Number): 16.00000 (16.00000)
  Difference: -0.00000

  MBIS Charges: (a.u.)
   Center  Symbol  Z      Pop.       Charge
      1       O    8    6.924539    1.075461
      2       N    7    9.075460   -2.075460

  MBIS Dipoles: [e a0]
   Center  Symbol  Z        X           Y           Z
      1       O    8   -0.000000    0.000000   -0.123865
      2       N    7   -0.000000   -0.000000   -0.357973

  MBIS Quadrupoles: [e a0^2]
   Center  Symbol  Z      XX        XY        XZ        YY        YZ        ZZ
      1       O    8   -1.4596   -0.0000   -0.0000   -1.4596   -0.0000   -1.7544
      2       N    7   -10.0520    0.0000    0.0000   -10.0520   -0.0000   -8.4631

  MBIS Octupoles: [e a0^3]
   Center  Symbol  Z      XXX       XXY       XXZ       XYY       XYZ       XZZ       YYY       YYZ       YZZ       ZZZ
      1       O    8   -0.0000   -0.0000   -0.0313    0.0000    0.0000    0.0000   -0.0000   -0.0313   -0.0000    0.1510
      2       N    7    0.0000    0.0000   -2.1629    0.0000   -0.0000    0.0000    0.0000   -2.1629    0.0000   -0.4404

  MBIS Radial Moments:
   Center  Symbol  Z      [a0^2]      [a0^3]      [a0^4]
      1       O    8    4.673594    5.984424    9.327057
      2       N    7   28.567157   80.643966   258.681574

  MBIS Valence Widths: [a0]
   Center  Symbol  Z     Width
      1       O    8    0.265241
      2       N    7    0.579099

*** tstop() called on Mac.lan at Sun Aug 10 17:46:35 2025
Module time:
	user time   =       4.79 seconds =       0.08 minutes
	system time =       2.84 seconds =       0.05 minutes
	total time  =          1 seconds =       0.02 minutes
Total time:
	user time   =      19.49 seconds =       0.32 minutes
	system time =       5.02 seconds =       0.08 minutes
	total time  =          2 seconds =       0.03 minutes

    Psi4 stopped on: Sunday, 10 August 2025 05:46PM
    Psi4 wall time for execution: 0:00:02.38

*** Psi4 exiting successfully. Buy a developer a beer!
