                               Psi4 1.9.1 release

  ==> Input File <==

--------------------------------------------------------------------------
molecule {
-1 3
O           0.000000           0.000000           0.000000
N           0.000000           0.000000           0.831318
}

set {
basis              cc-pvtz
reference          uks
maxiter            500
DAMPING_PERCENTAGE 1
E_CONVERGENCE      1.0E-8
D_CONVERGENCE      1.0E-8
DIIS_MAX_VECS      400
MBIS_MAXITER       8000
guess              read
}

E, wfn = energy('b3lyp', restart_file='last_wfn', return_wfn=True)
properties('b3lyp','MBIS_CHARGES', wfn=wfn)
wfn.to_file('last_wfn')
--------------------------------------------------------------------------

    Molecular point group: c2v
  Charge       = -1
  Multiplicity = 3
  Basis Set: CC-PVTZ
    Blend: CC-PVTZ
  Basis Set: (CC-PVTZ AUX)
    Blend: CC-PVTZ-JKFIT
  @DF-UKS Final Energy:  -129.29930320397361
    Total Energy =                       -129.2993032039736079
 Dipole X            :          0.0000000            0.0000000            0.0000000
 Dipole Y            :          0.0000000            0.0000000            0.0000000
 Dipole Z            :         -0.9196988           -0.0031521           -0.9228509
 Magnitude           :                                                    0.9228509
    Molecular point group: c2v

    Geometry (in Angstrom), charge = -1, multiplicity = 3:

       Center              X                  Y                   Z               Mass
    ------------   -----------------  -----------------  -----------------  -----------------
         O            0.000000000000     0.000000000000    -0.388059600299    15.994914619570
         N            0.000000000000     0.000000000000     0.443258399701    14.003074004430

  Charge       = -1
  Multiplicity = 3
  Basis Set: CC-PVTZ
    Blend: CC-PVTZ
  Basis Set: (CC-PVTZ AUX)
    Blend: CC-PVTZ-JKFIT

    Orbital Energies [Eh]
    ---------------------

    Alpha Occupied:

       1A1   -18.833494     2A1   -13.971534     3A1    -1.122493
       1B2    -0.327646     1B1    -0.327646     4A1    -0.292769
       5A1    -0.129576     2B2     0.313987     2B1     0.313987

    Alpha Virtual:

       6A1     0.512995     3B2     0.671051     3B1     0.671051
       7A1     0.705226     8A1     0.832398     4B2     0.912987
       4B1     0.912987     9A1     1.247806     1A2     1.247806
      10A1     1.499167    11A1     1.564083     5B2     1.671510
       5B1     1.671510     2A2     1.972983    12A1     1.972984
      13A1     2.328828     6B2     2.408026     6B1     2.408026
      14A1     3.039425     7B1     3.072976     7B2     3.072976
      15A1     3.603538     8B2     4.090513     8B1     4.090513
      16A1     4.129402     9B1     4.279785     9B2     4.279785
      17A1     4.307501     3A2     4.307501    10B2     4.605564
      10B1     4.605564     4A2     4.750611    18A1     4.750611
      19A1     5.070716    11B2     5.296775    11B1     5.296775
      12B2     5.555083    12B1     5.555083    20A1     6.287013
      21A1     6.495145     5A2     6.495145     6A2     6.787664
      22A1     6.787664    13B2     6.963063    13B1     6.963063
      23A1     7.285322    24A1     8.060371    14B1     8.714969
      14B2     8.714969    25A1    10.062053    26A1    23.427564

    Beta Occupied:

       1A1   -18.815440     2A1   -13.955409     3A1    -1.098898
       1B2    -0.268540     1B1    -0.268540     4A1    -0.244608
       5A1    -0.071480

    Beta Virtual:

       2B2     0.455813     2B1     0.455813     6A1     0.526178
       3B2     0.701026     3B1     0.701026     7A1     0.725738
       8A1     0.862462     4B2     0.966640     4B1     0.966640
       1A2     1.288220     9A1     1.288220    10A1     1.526778
      11A1     1.588450     5B2     1.709341     5B1     1.709341
      12A1     2.025877     2A2     2.025877    13A1     2.348772
       6B2     2.442176     6B1     2.442176    14A1     3.073942
       7B1     3.121508     7B2     3.121508    15A1     3.632253
       8B2     4.141620     8B1     4.141620    16A1     4.155102
       9B1     4.327477     9B2     4.327477    17A1     4.336840
       3A2     4.336841    10B2     4.641457    10B1     4.641457
      18A1     4.822468     4A2     4.822469    19A1     5.094633
      11B2     5.327921    11B1     5.327921    12B2     5.603553
      12B1     5.603553    20A1     6.313391    21A1     6.559623
       5A2     6.559624    22A1     6.828428     6A2     6.828428
      13B2     6.994756    13B1     6.994756    23A1     7.301718
      24A1     8.080589    14B1     8.753235    14B2     8.753235
      25A1    10.095058    26A1    23.452129

    Final Occupation by Irrep:
             A1    A2    B1    B2
    DOCC [     5,    0,    1,    1 ]
    SOCC [     0,    0,    1,    1 ]
    NA   [     5,    0,    2,    2 ]
    NB   [     5,    0,    1,    1 ]

  @DF-UKS Final Energy:  -129.29930320345221

   => Energetics <=

    Nuclear Repulsion Energy =             35.6469170612449133
    One-Electron Energy =                -251.3938654849351906
    Two-Electron Energy =                  99.5488799999114633
    DFT Exchange-Correlation Energy =     -13.1012347796733923
    Empirical Dispersion Energy =           0.0000000000000000
    VV10 Nonlocal Energy =                  0.0000000000000000
    Total Energy =                       -129.2993032034522116

  UHF NO Occupations:
  HONO-2 :    5 A1 1.9996734
  HONO-1 :    2 B1 1.0000000
  HONO-0 :    2 B2 1.0000000
  LUNO+0 :    6 A1 0.0003266
  LUNO+1 :    3 B1 0.0002445
  LUNO+2 :    3 B2 0.0002445
  LUNO+3 :    7 A1 0.0001003

Computation Completed

Properties will be evaluated at   0.000000,   0.000000,   0.000000 [a0]

Properties computed using the B3LYP density matrix

 Multipole Moments:

 ------------------------------------------------------------------------------------
     Multipole            Electronic (a.u.)      Nuclear  (a.u.)        Total (a.u.)
 ------------------------------------------------------------------------------------

 L = 1.  Multiply by 2.5417464519 to convert [e a0] to [Debye]
 Dipole X            :          0.0000000            0.0000000            0.0000000
 Dipole Y            :          0.0000000            0.0000000            0.0000000
 Dipole Z            :         -0.9196988           -0.0031521           -0.9228509
 Magnitude           :                                                    0.9228509

 L = 2.  Multiply by 1.3450342976 to convert [e a0^2] to [Debye ang]
 Quadrupole XX       :         -9.4259141            0.0000000           -9.4259141
 Quadrupole XY       :          0.0000000            0.0000000            0.0000000
 Quadrupole XZ       :          0.0000000            0.0000000            0.0000000
 Quadrupole YY       :         -9.4259141            0.0000000           -9.4259141
 Quadrupole YZ       :          0.0000000            0.0000000            0.0000000
 Quadrupole ZZ       :        -21.2465971            9.2135904          -12.0330067
 Traceless XX        :          3.9402277           -3.0711968            0.8690309
 Traceless YY        :          3.9402277           -3.0711968            0.8690309
 Traceless ZZ        :         -7.8804553            6.1423936           -1.7380617

 ------------------------------------------------------------------------------------
  ==> Computing MBIS Charges <==

  Electron Count from Grid (Expected Number): 16.00000 (16.00000)
  Difference: -0.00000

  MBIS Charges: (a.u.)
   Center  Symbol  Z      Pop.       Charge
      1       O    8    8.028483   -0.028483
      2       N    7    7.971516   -0.971516

  MBIS Dipoles: [e a0]
   Center  Symbol  Z        X           Y           Z
      1       O    8   -0.000000   -0.000000    0.236701
      2       N    7   -0.000000    0.000000   -0.366662

  MBIS Quadrupoles: [e a0^2]
   Center  Symbol  Z      XX        XY        XZ        YY        YZ        ZZ
      1       O    8   -3.3457   -0.0000    0.0000   -3.3457    0.0000   -3.9337
      2       N    7   -6.0802   -0.0000   -0.0000   -6.0802    0.0000   -6.4409

  MBIS Octupoles: [e a0^3]
   Center  Symbol  Z      XXX       XXY       XXZ       XYY       XYZ       XZZ       YYY       YYZ       YZZ       ZZZ
      1       O    8    0.0000   -0.0000    0.3713    0.0000    0.0000   -0.0000   -0.0000    0.3713    0.0000    0.6160
      2       N    7    0.0000    0.0000   -1.2666    0.0000   -0.0000    0.0000    0.0000   -1.2666    0.0000    0.2931

  MBIS Radial Moments:
   Center  Symbol  Z      [a0^2]      [a0^3]      [a0^4]
      1       O    8   10.625166   19.642537   43.944648
      2       N    7   18.601283   45.999379   134.374532

  MBIS Valence Widths: [a0]
   Center  Symbol  Z     Width
      1       O    8    0.370733
      2       N    7    0.496369

*** tstop() called on Mac.lan at Sun Aug 10 17:45:58 2025
Module time:
	user time   =       4.21 seconds =       0.07 minutes
	system time =       2.45 seconds =       0.04 minutes
	total time  =          0 seconds =       0.00 minutes
Total time:
	user time   =      17.71 seconds =       0.30 minutes
	system time =       4.71 seconds =       0.08 minutes
	total time  =          2 seconds =       0.03 minutes

    Psi4 stopped on: Sunday, 10 August 2025 05:45PM
    Psi4 wall time for execution: 0:00:02.17

*** Psi4 exiting successfully. Buy a developer a beer!
