                               Psi4 1.9.1 release

  ==> Input File <==

--------------------------------------------------------------------------
molecule {
-1 2
O           0.000000           0.000000           0.000000
C           0.000000           0.000000           1.059125
}

set {
basis              cc-pvtz
reference          uks
maxiter            500
DAMPING_PERCENTAGE 1
E_CONVERGENCE      1.0E-8
D_CONVERGENCE      1.0E-8
DIIS_MAX_VECS      400
MBIS_MAXITER       8000
guess              read
}

E, wfn = energy('b3lyp', restart_file='last_wfn', return_wfn=True)
properties('b3lyp','MBIS_CHARGES', wfn=wfn)
wfn.to_file('last_wfn')
--------------------------------------------------------------------------

    Molecular point group: c2v
  Charge       = -1
  Multiplicity = 2
  Basis Set: CC-PVTZ
    Blend: CC-PVTZ
  Basis Set: (CC-PVTZ AUX)
    Blend: CC-PVTZ-JKFIT
  @DF-UKS Final Energy:  -113.23489791294071
    Total Energy =                       -113.2348979129407098
 Dipole X            :          0.0000000            0.0000000            0.0000000
 Dipole Y            :          0.0000000            0.0000000            0.0000000
 Dipole Z            :         -1.0405534           -0.0021814           -1.0427349
 Magnitude           :                                                    1.0427349
    Molecular point group: c2v

    Geometry (in Angstrom), charge = -1, multiplicity = 2:

       Center              X                  Y                   Z               Mass
    ------------   -----------------  -----------------  -----------------  -----------------
         O            0.000000000000     0.000000000000    -0.453993168856    15.994914619570
         C            0.000000000000     0.000000000000     0.605131831144    12.000000000000

  Charge       = -1
  Multiplicity = 2
  Basis Set: CC-PVTZ
    Blend: CC-PVTZ
  Basis Set: (CC-PVTZ AUX)
    Blend: CC-PVTZ-JKFIT

    Orbital Energies [Eh]
    ---------------------

    Alpha Occupied:

       1A1   -18.857201     2A1    -9.885098     3A1    -0.853983
       4A1    -0.250553     1B1    -0.180155     1B2    -0.166426
       5A1    -0.047954     2B1     0.225181

    Alpha Virtual:

       2B2     0.304547     6A1     0.406547     3B1     0.554360
       3B2     0.566266     7A1     0.570154     8A1     0.808364
       4B1     0.877272     4B2     0.881162     1A2     0.937521
       9A1     0.939782    10A1     0.994627     5B1     1.190824
       5B2     1.193500    11A1     1.430222    12A1     1.731561
       2A2     1.831072    13A1     1.831975    14A1     2.225295
       6B1     2.248175     6B2     2.251864     7B1     2.271915
       7B2     2.276014    15A1     2.853463     8B1     2.971323
       8B2     2.971665     3A2     3.188906    16A1     3.190428
       4A2     3.279357    17A1     3.282224     9B1     3.317292
       9B2     3.320759    18A1     3.403309    10B1     3.619333
      10B2     3.623282    19A1     3.811611    11B2     4.466567
      11B1     4.467483    20A1     5.006519    12B1     5.415707
      12B2     5.415752     5A2     5.917185    21A1     5.917769
      22A1     6.490291     6A2     6.569121    23A1     6.570207
      13B1     6.765720    13B2     6.766926    14B2     7.056686
      14B1     7.057029    24A1     7.156289    25A1     7.675001
      26A1    13.562950

    Beta Occupied:

       1A1   -18.848986     2A1    -9.878243     3A1    -0.840749
       4A1    -0.233233     1B2    -0.160287     1B1    -0.134184
       5A1    -0.022314

    Beta Virtual:

       2B2     0.314087     2B1     0.341330     6A1     0.410657
       3B2     0.571920     7A1     0.584961     3B1     0.594247
       8A1     0.814686     4B2     0.884189     4B1     0.898893
       9A1     0.962166     1A2     0.963475    10A1     1.010435
       5B2     1.195651     5B1     1.220065    11A1     1.436873
      12A1     1.743049     2A2     1.847044    13A1     1.847187
      14A1     2.239861     6B2     2.254493     6B1     2.273542
       7B2     2.282156     7B1     2.309219    15A1     2.862643
       8B2     3.001629     8B1     3.001696     3A2     3.209191
      16A1     3.209250    17A1     3.312615     4A2     3.313868
       9B2     3.321759     9B1     3.348073    18A1     3.414469
      10B2     3.627747    10B1     3.651655    19A1     3.821849
      11B2     4.470340    11B1     4.493436    20A1     5.017324
      12B2     5.433355    12B1     5.433359     5A2     5.931016
      21A1     5.931067    22A1     6.496318    23A1     6.597232
       6A2     6.597312    13B2     6.770617    13B1     6.792516
      14B2     7.059280    14B1     7.079502    24A1     7.168106
      25A1     7.685857    26A1    13.575199

    Final Occupation by Irrep:
             A1    A2    B1    B2
    DOCC [     5,    0,    1,    1 ]
    SOCC [     0,    0,    1,    0 ]
    NA   [     5,    0,    2,    1 ]
    NB   [     5,    0,    1,    1 ]

  @DF-UKS Final Energy:  -113.23489790327898

   => Energetics <=

    Nuclear Repulsion Energy =             23.9825385220441341
    One-Electron Energy =                -205.9932859822894784
    Two-Electron Energy =                  80.3328094890609776
    DFT Exchange-Correlation Energy =     -11.5569599320946121
    Empirical Dispersion Energy =           0.0000000000000000
    VV10 Nonlocal Energy =                  0.0000000000000000
    Total Energy =                       -113.2348979032789771

  UHF NO Occupations:
  HONO-2 :    1 B1 1.9996482
  HONO-1 :    5 A1 1.9994865
  HONO-0 :    2 B1 1.0000000
  LUNO+0 :    6 A1 0.0005135
  LUNO+1 :    3 B1 0.0003518
  LUNO+2 :    7 A1 0.0000558
  LUNO+3 :    2 B2 0.0000162

Computation Completed

Properties will be evaluated at   0.000000,   0.000000,   0.000000 [a0]

Properties computed using the B3LYP density matrix

 Multipole Moments:

 ------------------------------------------------------------------------------------
     Multipole            Electronic (a.u.)      Nuclear  (a.u.)        Total (a.u.)
 ------------------------------------------------------------------------------------

 L = 1.  Multiply by 2.5417464519 to convert [e a0] to [Debye]
 Dipole X            :          0.0000000            0.0000000            0.0000000
 Dipole Y            :          0.0000000            0.0000000            0.0000000
 Dipole Z            :         -1.0405533           -0.0021814           -1.0427348
 Magnitude           :                                                    1.0427348

 L = 2.  Multiply by 1.3450342976 to convert [e a0^2] to [Debye ang]
 Quadrupole XX       :        -11.6398245            0.0000000          -11.6398245
 Quadrupole XY       :          0.0000000            0.0000000            0.0000000
 Quadrupole XZ       :          0.0000000            0.0000000            0.0000000
 Quadrupole YY       :         -9.4413153            0.0000000           -9.4413153
 Quadrupole YZ       :          0.0000000            0.0000000            0.0000000
 Quadrupole ZZ       :        -27.1701774           13.7342638          -13.4359135
 Traceless XX        :          4.4439479           -4.5780879           -0.1341401
 Traceless YY        :          6.6424571           -4.5780879            2.0643692
 Traceless ZZ        :        -11.0864050            9.1561759           -1.9302291

 ------------------------------------------------------------------------------------
  ==> Computing MBIS Charges <==

  Electron Count from Grid (Expected Number): 15.00000 (15.00000)
  Difference:  0.00000

  MBIS Charges: (a.u.)
   Center  Symbol  Z      Pop.       Charge
      1       O    8    8.190489   -0.190489
      2       C    6    6.809511   -0.809511

  MBIS Dipoles: [e a0]
   Center  Symbol  Z        X           Y           Z
      1       O    8   -0.000000   -0.000000    0.096201
      2       C    6   -0.000000    0.000000   -0.376657

  MBIS Quadrupoles: [e a0^2]
   Center  Symbol  Z      XX        XY        XZ        YY        YZ        ZZ
      1       O    8   -3.7519   -0.0000   -0.0000   -3.5370   -0.0000   -4.0024
      2       C    6   -7.8880   -0.0000    0.0000   -5.9043    0.0000   -7.2082

  MBIS Octupoles: [e a0^3]
   Center  Symbol  Z      XXX       XXY       XXZ       XYY       XYZ       XZZ       YYY       YYZ       YZZ       ZZZ
      1       O    8   -0.0000    0.0000    0.1204   -0.0000    0.0000    0.0000   -0.0000    0.1728   -0.0000    0.2712
      2       C    6   -0.0000    0.0000   -1.6602   -0.0000    0.0000   -0.0000    0.0000   -0.4931    0.0000   -0.4399

  MBIS Radial Moments:
   Center  Symbol  Z      [a0^2]      [a0^3]      [a0^4]
      1       O    8   11.291293   20.931285   46.720181
      2       C    6   21.000476   59.620314   198.238263

  MBIS Valence Widths: [a0]
   Center  Symbol  Z     Width
      1       O    8    0.379596
      2       C    6    0.589844

*** tstop() called on Mac.lan at Sun Aug 10 17:41:48 2025
Module time:
	user time   =       3.91 seconds =       0.07 minutes
	system time =       2.19 seconds =       0.04 minutes
	total time  =          0 seconds =       0.00 minutes
Total time:
	user time   =      17.99 seconds =       0.30 minutes
	system time =       4.24 seconds =       0.07 minutes
	total time  =          2 seconds =       0.03 minutes

    Psi4 stopped on: Sunday, 10 August 2025 05:41PM
    Psi4 wall time for execution: 0:00:02.15

*** Psi4 exiting successfully. Buy a developer a beer!
