                               Psi4 1.9.1 release

  ==> Input File <==

--------------------------------------------------------------------------
molecule {
-1 2
C           0.000000           0.000000           0.000000
C           0.000000           0.000000           1.000084
}

set {
basis              cc-pvtz
reference          uks
maxiter            500
DAMPING_PERCENTAGE 1
E_CONVERGENCE      1.0E-8
D_CONVERGENCE      1.0E-8
DIIS_MAX_VECS      400
MBIS_MAXITER       8000
guess              read
}

E, wfn = energy('b3lyp', restart_file='last_wfn', return_wfn=True)
properties('b3lyp','MBIS_CHARGES', wfn=wfn)
wfn.to_file('last_wfn')
--------------------------------------------------------------------------

    Molecular point group: d2h
  Charge       = -1
  Multiplicity = 2
  Basis Set: CC-PVTZ
    Blend: CC-PVTZ
  Basis Set: (CC-PVTZ AUX)
    Blend: CC-PVTZ-JKFIT
  @DF-UKS Final Energy:   -75.89899305455873
    Total Energy =                        -75.8989930545587299
 Dipole X            :          0.0000000            0.0000000            0.0000000
 Dipole Y            :          0.0000000            0.0000000            0.0000000
 Dipole Z            :          0.0000000           -0.0000000           -0.0000000
 Magnitude           :                                                    0.0000000
    Molecular point group: d2h

    Geometry (in Angstrom), charge = -1, multiplicity = 2:

       Center              X                  Y                   Z               Mass
    ------------   -----------------  -----------------  -----------------  -----------------
         C            0.000000000000     0.000000000000    -0.500042000000    12.000000000000
         C            0.000000000000     0.000000000000     0.500042000000    12.000000000000

  Charge       = -1
  Multiplicity = 2
  Basis Set: CC-PVTZ
    Blend: CC-PVTZ
  Basis Set: (CC-PVTZ AUX)
    Blend: CC-PVTZ-JKFIT

    Orbital Energies [Eh]
    ---------------------

    Alpha Occupied:

       1Ag    -9.847873     1B1u   -9.833823     2Ag    -0.508921
       2B1u   -0.064132     1B2u   -0.050931     1B3u   -0.050931
       3Ag    -0.025380

    Alpha Virtual:

       1B2g    0.362395     1B3g    0.362395     3B1u    0.402346
       4Ag     0.488571     2B2u    0.509453     2B3u    0.509453
       5Ag     0.647399     2B2g    0.691972     2B3g    0.691972
       4B1u    0.852970     6Ag     0.875756     1B1g    0.875756
       3B3u    1.149403     3B2u    1.149403     5B1u    1.149935
       6B1u    1.215668     1Au     1.215668     7Ag     1.378312
       3B2g    1.430145     3B3g    1.430145     4B2u    2.182895
       4B3u    2.182895     7B1u    2.200148     8Ag     2.518089
       4B2g    2.677856     4B3g    2.677856     8B1u    2.720331
       5B3u    2.779211     5B2u    2.779211     9Ag     2.814590
       2B1g    2.814590     6B3u    2.988263     6B2u    2.988263
      10Ag     3.155021     5B2g    3.266074     5B3g    3.266074
       9B1u    3.330892     2Au     3.330892     6B2g    3.352543
       6B3g    3.352543    11Ag     3.354855     3B1g    3.354856
      12Ag     3.799743    10B1u    3.868827     7B2u    4.089933
       7B3u    4.089933    11B1u    4.262571     3Au     4.262572
      12B1u    5.096052     7B2g    5.510395     7B3g    5.510395
      13Ag     6.319665    13B1u   17.720855

    Beta Occupied:

       1Ag    -9.837912     1B1u   -9.824624     2Ag    -0.475252
       1B2u   -0.041296     1B3u   -0.041296     2B1u   -0.000902

    Beta Virtual:

       3Ag     0.107360     1B2g    0.375054     1B3g    0.375054
       3B1u    0.414409     4Ag     0.509518     2B2u    0.514365
       2B3u    0.514365     5Ag     0.672021     2B2g    0.703303
       2B3g    0.703303     4B1u    0.874390     6Ag     0.878516
       1B1g    0.878516     3B3u    1.173053     3B2u    1.173053
       5B1u    1.174203     6B1u    1.223803     1Au     1.223803
       7Ag     1.412314     3B2g    1.446506     3B3g    1.446506
       4B2u    2.191834     4B3u    2.191834     7B1u    2.244835
       8Ag     2.545514     4B2g    2.685274     4B3g    2.685274
       8B1u    2.747326     5B3u    2.781011     5B2u    2.781011
       9Ag     2.821298     2B1g    2.821299     6B3u    3.028842
       6B2u    3.028842    10Ag     3.214785     5B2g    3.308292
       5B3g    3.308292     9B1u    3.348742     2Au     3.348742
       6B2g    3.357257     6B3g    3.357257    11Ag     3.373169
       3B1g    3.373169    12Ag     3.829699    10B1u    3.910798
       7B2u    4.122148     7B3u    4.122148    11B1u    4.274099
       3Au     4.274099    12B1u    5.140771     7B2g    5.539351
       7B3g    5.539351    13Ag     6.342419    13B1u   17.737779

    Final Occupation by Irrep:
             Ag   B1g   B2g   B3g    Au   B1u   B2u   B3u
    DOCC [     2,    0,    0,    0,    0,    2,    1,    1 ]
    SOCC [     1,    0,    0,    0,    0,    0,    0,    0 ]
    NA   [     3,    0,    0,    0,    0,    2,    1,    1 ]
    NB   [     2,    0,    0,    0,    0,    2,    1,    1 ]

  @DF-UKS Final Energy:   -75.89899305522316

   => Energetics <=

    Nuclear Repulsion Energy =             19.0487794866431273
    One-Electron Energy =                -142.7945849037353128
    Two-Electron Energy =                  56.8696736774074125
    DFT Exchange-Correlation Energy =      -9.0228613155383872
    Empirical Dispersion Energy =           0.0000000000000000
    VV10 Nonlocal Energy =                  0.0000000000000000
    Total Energy =                        -75.8989930552231726

  UHF NO Occupations:
  HONO-2 :    2 Ag 1.9997492
  HONO-1 :    2B1u 1.9985878
  HONO-0 :    3 Ag 1.0000000
  LUNO+0 :    3B1u 0.0014122
  LUNO+1 :    4 Ag 0.0002508
  LUNO+2 :    2B3u 0.0000711
  LUNO+3 :    2B2u 0.0000711

Computation Completed

Properties will be evaluated at   0.000000,   0.000000,   0.000000 [a0]

Properties computed using the B3LYP density matrix

 Multipole Moments:

 ------------------------------------------------------------------------------------
     Multipole            Electronic (a.u.)      Nuclear  (a.u.)        Total (a.u.)
 ------------------------------------------------------------------------------------

 L = 1.  Multiply by 2.5417464519 to convert [e a0] to [Debye]
 Dipole X            :          0.0000000            0.0000000            0.0000000
 Dipole Y            :          0.0000000            0.0000000            0.0000000
 Dipole Z            :          0.0000000           -0.0000000           -0.0000000
 Magnitude           :                                                    0.0000000

 L = 2.  Multiply by 1.3450342976 to convert [e a0^2] to [Debye ang]
 Quadrupole XX       :        -10.5490638            0.0000000          -10.5490638
 Quadrupole XY       :          0.0000000            0.0000000            0.0000000
 Quadrupole XZ       :          0.0000000            0.0000000            0.0000000
 Quadrupole YY       :        -10.5490638            0.0000000          -10.5490638
 Quadrupole YZ       :          0.0000000            0.0000000            0.0000000
 Quadrupole ZZ       :        -23.9463901           10.7149944          -13.2313957
 Traceless XX        :          4.4657754           -3.5716648            0.8941106
 Traceless YY        :          4.4657754           -3.5716648            0.8941106
 Traceless ZZ        :         -8.9315509            7.1433296           -1.7882213

 ------------------------------------------------------------------------------------
  ==> Computing MBIS Charges <==

  Electron Count from Grid (Expected Number): 13.00000 (13.00000)
  Difference:  0.00000

  MBIS Charges: (a.u.)
   Center  Symbol  Z      Pop.       Charge
      1       C    6    6.500000   -0.500000
      2       C    6    6.500000   -0.500000

  MBIS Dipoles: [e a0]
   Center  Symbol  Z        X           Y           Z
      1       C    6   -0.000000   -0.000000    0.031156
      2       C    6   -0.000000    0.000000   -0.031156

  MBIS Quadrupoles: [e a0^2]
   Center  Symbol  Z      XX        XY        XZ        YY        YZ        ZZ
      1       C    6   -5.2745   -0.0000   -0.0000   -5.2745   -0.0000   -6.1104
      2       C    6   -5.2745   -0.0000    0.0000   -5.2745    0.0000   -6.1104

  MBIS Octupoles: [e a0^3]
   Center  Symbol  Z      XXX       XXY       XXZ       XYY       XYZ       XZZ       YYY       YYZ       YZZ       ZZZ
      1       C    6   -0.0000   -0.0000    0.2781   -0.0000    0.0000   -0.0000    0.0000    0.2781    0.0000    1.2248
      2       C    6   -0.0000   -0.0000   -0.2781   -0.0000   -0.0000   -0.0000    0.0000   -0.2781    0.0000   -1.2248

  MBIS Radial Moments:
   Center  Symbol  Z      [a0^2]      [a0^3]      [a0^4]
      1       C    6   16.659422   43.834904   137.849820
      2       C    6   16.659422   43.834904   137.849820

  MBIS Valence Widths: [a0]
   Center  Symbol  Z     Width
      1       C    6    0.538014
      2       C    6    0.538014

*** tstop() called on Mac.lan at Sun Aug 10 17:29:43 2025
Module time:
	user time   =       3.98 seconds =       0.07 minutes
	system time =       1.91 seconds =       0.03 minutes
	total time  =          0 seconds =       0.00 minutes
Total time:
	user time   =      16.47 seconds =       0.27 minutes
	system time =       4.16 seconds =       0.07 minutes
	total time  =          2 seconds =       0.03 minutes

    Psi4 stopped on: Sunday, 10 August 2025 05:29PM
    Psi4 wall time for execution: 0:00:02.00

*** Psi4 exiting successfully. Buy a developer a beer!
