                               Psi4 1.9.1 release

  ==> Input File <==

--------------------------------------------------------------------------
molecule {
-1 2
O           0.000000           0.000000           0.000000
O           0.000000           0.000000           1.774638
}

set {
basis              cc-pvtz
reference          uks
maxiter            500
DAMPING_PERCENTAGE 1
E_CONVERGENCE      1.0E-8
D_CONVERGENCE      1.0E-8
DIIS_MAX_VECS      400
MBIS_MAXITER       8000
guess              read
}

E, wfn = energy('b3lyp', restart_file='last_wfn', return_wfn=True)
properties('b3lyp','MBIS_CHARGES', wfn=wfn)
wfn.to_file('last_wfn')
--------------------------------------------------------------------------

    Molecular point group: d2h
  Charge       = -1
  Multiplicity = 2
  Basis Set: CC-PVTZ
    Blend: CC-PVTZ
  Basis Set: (CC-PVTZ AUX)
    Blend: CC-PVTZ-JKFIT
  @DF-UKS Final Energy:  -150.31454125010657
    Total Energy =                       -150.3145412501065721
 Dipole X            :          0.0000000            0.0000000            0.0000000
 Dipole Y            :          0.0000000            0.0000000            0.0000000
 Dipole Z            :          0.0000000            0.0000000            0.0000000
 Magnitude           :                                                    0.0000000
    Molecular point group: d2h

    Geometry (in Angstrom), charge = -1, multiplicity = 2:

       Center              X                  Y                   Z               Mass
    ------------   -----------------  -----------------  -----------------  -----------------
         O            0.000000000000     0.000000000000    -0.887319000000    15.994914619570
         O            0.000000000000     0.000000000000     0.887319000000    15.994914619570

  Charge       = -1
  Multiplicity = 2
  Basis Set: CC-PVTZ
    Blend: CC-PVTZ
  Basis Set: (CC-PVTZ AUX)
    Blend: CC-PVTZ-JKFIT

    Orbital Energies [Eh]
    ---------------------

    Alpha Occupied:

       1Ag   -18.876860     1B1u  -18.876836     2Ag    -0.657966
       2B1u   -0.548816     1B2u   -0.081350     3Ag    -0.080579
       1B3u   -0.043311     1B3g   -0.013943     1B2g    0.027343

    Alpha Virtual:

       3B1u    0.197107     4B1u    0.793285     2B2u    0.814408
       2B3u    0.837289     2B3g    0.907338     4Ag     0.907653
       2B2g    0.927538     5Ag     1.052518     5B1u    1.402965
       3B2u    1.562051     3B3u    1.582953     6Ag     1.708966
       1B1g    1.714772     7Ag     1.738146     1Au     1.822605
       6B1u    1.822893     3B3g    2.096600     3B2g    2.120878
       7B1u    2.614092     8Ag     3.783342     4B2u    3.828629
       4B3u    3.863431     4B3g    3.900398     4B2g    3.935826
       8B1u    4.131154     5B2u    5.222872     9Ag     5.227128
       5B3u    5.250982     2B1g    5.370296    10Ag     5.372839
       6B2u    5.423641     6B3u    5.423732     5B3g    5.429732
       5B2g    5.429807     9B1u    5.459101     2Au     5.459582
       6B3g    5.593580     6B2g    5.621404    10B1u    5.805605
       7B2u    6.370693     7B3u    6.404356    11Ag     6.429576
       3B1g    6.431260    11B1u    6.509378     3Au     6.509441
      12Ag     6.575389     7B3g    6.775832     7B2g    6.808880
      12B1u    7.308656    13Ag     7.463196    13B1u    8.253304

    Beta Occupied:

       1Ag   -18.862981     1B1u  -18.862940     2Ag    -0.622206
       2B1u   -0.506175     3Ag    -0.067960     1B3u   -0.031314
       1B2u    0.011661     1B2g    0.041405

    Beta Virtual:

       1B3g    0.144284     3B1u    0.213531     4B1u    0.800734
       2B3u    0.843175     2B2u    0.855524     4Ag     0.916580
       2B2g    0.932977     2B3g    0.944357     5Ag     1.063231
       5B1u    1.418622     3B2u    1.584068     3B3u    1.584630
       6Ag     1.738894     1B1g    1.739058     7Ag     1.745412
       1Au     1.849761     6B1u    1.851137     3B2g    2.124240
       3B3g    2.126433     7B1u    2.626792     8Ag     3.792538
       4B3u    3.874125     4B2u    3.889753     4B2g    3.946839
       4B3g    3.962431     8B1u    4.144587     9Ag     5.246574
       5B2u    5.255336     5B3u    5.255470     2B1g    5.393950
      10Ag     5.395314     6B3u    5.458482     6B2u    5.458754
       5B2g    5.465565     5B3g    5.465842     2Au     5.483615
       9B1u    5.484999     6B2g    5.625285     6B3g    5.626102
      10B1u    5.820657     7B3u    6.411677     7B2u    6.424191
       3B1g    6.481356    11Ag     6.484625     3Au     6.559214
      11B1u    6.562604    12Ag     6.589061     7B2g    6.815530
       7B3g    6.826723    12B1u    7.320091    13Ag     7.492498
      13B1u    8.282250

    Final Occupation by Irrep:
             Ag   B1g   B2g   B3g    Au   B1u   B2u   B3u
    DOCC [     3,    0,    1,    0,    0,    2,    1,    1 ]
    SOCC [     0,    0,    0,    1,    0,    0,    0,    0 ]
    NA   [     3,    0,    1,    1,    0,    2,    1,    1 ]
    NB   [     3,    0,    1,    0,    0,    2,    1,    1 ]

  @DF-UKS Final Energy:  -150.31454124978117

   => Energetics <=

    Nuclear Repulsion Energy =             19.0840844627918536
    One-Electron Energy =                -250.7540800073475964
    Two-Electron Energy =                  95.2507432468856052
    DFT Exchange-Correlation Energy =     -13.8952889521110343
    Empirical Dispersion Energy =           0.0000000000000000
    VV10 Nonlocal Energy =                  0.0000000000000000
    Total Energy =                       -150.3145412497811719

  UHF NO Occupations:
  HONO-2 :    2B1u 1.9997931
  HONO-1 :    1B2u 1.9978981
  HONO-0 :    1B3g 1.0000000
  LUNO+0 :    2B2u 0.0021019
  LUNO+1 :    3B1u 0.0002069
  LUNO+2 :    4 Ag 0.0001575
  LUNO+3 :    2B3u 0.0000558

Computation Completed

Properties will be evaluated at   0.000000,   0.000000,   0.000000 [a0]

Properties computed using the B3LYP density matrix

 Multipole Moments:

 ------------------------------------------------------------------------------------
     Multipole            Electronic (a.u.)      Nuclear  (a.u.)        Total (a.u.)
 ------------------------------------------------------------------------------------

 L = 1.  Multiply by 2.5417464519 to convert [e a0] to [Debye]
 Dipole X            :          0.0000000            0.0000000            0.0000000
 Dipole Y            :          0.0000000            0.0000000            0.0000000
 Dipole Z            :          0.0000000            0.0000000            0.0000000
 Magnitude           :                                                    0.0000000

 L = 2.  Multiply by 1.3450342976 to convert [e a0^2] to [Debye ang]
 Quadrupole XX       :         -9.9189081            0.0000000           -9.9189081
 Quadrupole XY       :          0.0000000            0.0000000            0.0000000
 Quadrupole XZ       :          0.0000000            0.0000000            0.0000000
 Quadrupole YY       :         -9.1214073            0.0000000           -9.1214073
 Quadrupole YZ       :          0.0000000            0.0000000            0.0000000
 Quadrupole ZZ       :        -56.6917603           44.9859897          -11.7057706
 Traceless XX        :         15.3251172          -14.9953299            0.3297873
 Traceless YY        :         16.1226179          -14.9953299            1.1272880
 Traceless ZZ        :        -31.4477351           29.9906598           -1.4570753

 ------------------------------------------------------------------------------------
  ==> Computing MBIS Charges <==

  Electron Count from Grid (Expected Number): 17.00000 (17.00000)
  Difference: -0.00000

  MBIS Charges: (a.u.)
   Center  Symbol  Z      Pop.       Charge
      1       O    8    8.500000   -0.500000
      2       O    8    8.500000   -0.500000

  MBIS Dipoles: [e a0]
   Center  Symbol  Z        X           Y           Z
      1       O    8    0.000000    0.000000    0.051673
      2       O    8    0.000000    0.000000   -0.051673

  MBIS Quadrupoles: [e a0^2]
   Center  Symbol  Z      XX        XY        XZ        YY        YZ        ZZ
      1       O    8   -4.9595   -0.0000    0.0000   -4.5607   -0.0000   -4.2738
      2       O    8   -4.9595   -0.0000   -0.0000   -4.5607    0.0000   -4.2738

  MBIS Octupoles: [e a0^3]
   Center  Symbol  Z      XXX       XXY       XXZ       XYY       XYZ       XZZ       YYY       YYZ       YZZ       ZZZ
      1       O    8   -0.0000   -0.0000    0.0470   -0.0000   -0.0000   -0.0000    0.0000   -0.0478   -0.0000   -0.3471
      2       O    8   -0.0000   -0.0000   -0.0470    0.0000    0.0000    0.0000    0.0000    0.0478    0.0000    0.3471

  MBIS Radial Moments:
   Center  Symbol  Z      [a0^2]      [a0^3]      [a0^4]
      1       O    8   13.793939   27.853115   67.028770
      2       O    8   13.793939   27.853115   67.028770

  MBIS Valence Widths: [a0]
   Center  Symbol  Z     Width
      1       O    8    0.410853
      2       O    8    0.410853

*** tstop() called on Mac.lan at Sun Aug 10 17:28:51 2025
Module time:
	user time   =       4.67 seconds =       0.08 minutes
	system time =       1.48 seconds =       0.02 minutes
	total time  =          1 seconds =       0.02 minutes
Total time:
	user time   =      16.42 seconds =       0.27 minutes
	system time =       3.93 seconds =       0.07 minutes
	total time  =          2 seconds =       0.03 minutes

    Psi4 stopped on: Sunday, 10 August 2025 05:28PM
    Psi4 wall time for execution: 0:00:01.98

*** Psi4 exiting successfully. Buy a developer a beer!
