                               Psi4 1.9.1 release

  ==> Input File <==

--------------------------------------------------------------------------
molecule {
-1 1
N           0.000000           0.000000           0.000000
C           0.000000           0.000000           1.371213
}

set {
basis              cc-pvtz
reference          uks
maxiter            500
DAMPING_PERCENTAGE 1
E_CONVERGENCE      1.0E-8
D_CONVERGENCE      1.0E-8
DIIS_MAX_VECS      400
MBIS_MAXITER       8000
guess              read
}

E, wfn = energy('b3lyp', restart_file='last_wfn', return_wfn=True)
properties('b3lyp','MBIS_CHARGES', wfn=wfn)
wfn.to_file('last_wfn')
--------------------------------------------------------------------------

    Molecular point group: c2v
  Charge       = -1
  Multiplicity = 1
  Basis Set: CC-PVTZ
    Blend: CC-PVTZ
  Basis Set: (CC-PVTZ AUX)
    Blend: CC-PVTZ-JKFIT
  @DF-UKS Final Energy:   -92.82882503824629
    Total Energy =                        -92.8288250382462934
 Dipole X            :          0.0000000            0.0000000            0.0000000
 Dipole Y            :          0.0000000            0.0000000            0.0000000
 Dipole Z            :         -0.1675130            0.0018380           -0.1656751
 Magnitude           :                                                    0.1656751
    Molecular point group: c2v

    Geometry (in Angstrom), charge = -1, multiplicity = 1:

       Center              X                  Y                   Z               Mass
    ------------   -----------------  -----------------  -----------------  -----------------
         N            0.000000000000     0.000000000000    -0.632792722783    14.003074004430
         C            0.000000000000     0.000000000000     0.738420277217    12.000000000000

  Charge       = -1
  Multiplicity = 1
  Basis Set: CC-PVTZ
    Blend: CC-PVTZ
  Basis Set: (CC-PVTZ AUX)
    Blend: CC-PVTZ-JKFIT

    Orbital Energies [Eh]
    ---------------------

    Alpha Occupied:

       1A1   -14.054091     2A1    -9.945263     3A1    -0.535336
       4A1    -0.172142     1B1    -0.023526     1B2    -0.023526
       5A1    -0.023482

    Alpha Virtual:

       2B1     0.252010     2B2     0.252010     6A1     0.404614
       3B2     0.564418     3B1     0.564418     7A1     0.581411
       8A1     0.689423     9A1     0.752670     4B2     0.774829
       4B1     0.774829     1A2     0.931270    10A1     0.931270
       5B2     1.080223     5B1     1.080223    11A1     1.156035
       2A2     1.413584    12A1     1.413584    13A1     1.423772
       6B1     1.744508     6B2     1.744508    14A1     1.969618
       7B1     2.309825     7B2     2.309825    15A1     2.499853
       8B2     2.968559     8B1     2.968559     3A2     2.989359
      16A1     2.989359     9B2     3.008645     9B1     3.008645
      17A1     3.245704    10B1     3.263493    10B2     3.263493
       4A2     3.269283    18A1     3.269286    19A1     3.310317
      11B2     3.630927    11B1     3.630927    20A1     3.767051
      12B1     4.207615    12B2     4.207615     5A2     4.487101
      21A1     4.487101    22A1     4.810518     6A2     4.810529
      23A1     4.917046    13B1     4.956812    13B2     4.956812
      24A1     5.388679    14B1     5.426868    14B2     5.426868
      25A1     5.732763    26A1     9.495886

    Beta Occupied:

       1A1   -14.054091     2A1    -9.945263     3A1    -0.535336
       4A1    -0.172142     1B1    -0.023526     1B2    -0.023526
       5A1    -0.023482

    Beta Virtual:

       2B1     0.252010     2B2     0.252010     6A1     0.404614
       3B2     0.564418     3B1     0.564418     7A1     0.581411
       8A1     0.689423     9A1     0.752670     4B2     0.774829
       4B1     0.774829     1A2     0.931270    10A1     0.931270
       5B2     1.080223     5B1     1.080223    11A1     1.156035
       2A2     1.413584    12A1     1.413584    13A1     1.423772
       6B1     1.744508     6B2     1.744508    14A1     1.969618
       7B1     2.309825     7B2     2.309825    15A1     2.499853
       8B2     2.968559     8B1     2.968559     3A2     2.989359
      16A1     2.989359     9B2     3.008645     9B1     3.008645
      17A1     3.245704    10B1     3.263493    10B2     3.263493
       4A2     3.269283    18A1     3.269286    19A1     3.310317
      11B2     3.630927    11B1     3.630927    20A1     3.767051
      12B1     4.207615    12B2     4.207615     5A2     4.487101
      21A1     4.487101    22A1     4.810518     6A2     4.810529
      23A1     4.917046    13B1     4.956812    13B2     4.956812
      24A1     5.388679    14B1     5.426868    14B2     5.426868
      25A1     5.732763    26A1     9.495886

    Final Occupation by Irrep:
             A1    A2    B1    B2
    DOCC [     5,    0,    1,    1 ]
    SOCC [     0,    0,    0,    0 ]
    NA   [     5,    0,    1,    1 ]
    NB   [     5,    0,    1,    1 ]

  @DF-UKS Final Energy:   -92.82882503790640

   => Energetics <=

    Nuclear Repulsion Energy =             16.2085998660601973
    One-Electron Energy =                -161.3473696496832872
    Two-Electron Energy =                  62.2666863250524187
    DFT Exchange-Correlation Energy =      -9.9567415793357146
    Empirical Dispersion Energy =           0.0000000000000000
    VV10 Nonlocal Energy =                  0.0000000000000000
    Total Energy =                        -92.8288250379063982

  UHF NO Occupations:
  HONO-2 :    5 A1 2.0000000
  HONO-1 :    1 B1 2.0000000
  HONO-0 :    1 B2 2.0000000
  LUNO+0 :    6 A1 0.0000000
  LUNO+1 :    7 A1 0.0000000
  LUNO+2 :    8 A1 0.0000000
  LUNO+3 :    9 A1 0.0000000

Computation Completed

Properties will be evaluated at   0.000000,   0.000000,   0.000000 [a0]

Properties computed using the B3LYP density matrix

 Multipole Moments:

 ------------------------------------------------------------------------------------
     Multipole            Electronic (a.u.)      Nuclear  (a.u.)        Total (a.u.)
 ------------------------------------------------------------------------------------

 L = 1.  Multiply by 2.5417464519 to convert [e a0] to [Debye]
 Dipole X            :          0.0000000            0.0000000            0.0000000
 Dipole Y            :          0.0000000            0.0000000            0.0000000
 Dipole Z            :         -0.1675130            0.0018380           -0.1656751
 Magnitude           :                                                    0.1656751

 L = 2.  Multiply by 1.3450342976 to convert [e a0^2] to [Debye ang]
 Quadrupole XX       :        -10.7302758            0.0000000          -10.7302758
 Quadrupole XY       :          0.0000000            0.0000000            0.0000000
 Quadrupole XZ       :          0.0000000            0.0000000            0.0000000
 Quadrupole YY       :        -10.7302758            0.0000000          -10.7302758
 Quadrupole YZ       :          0.0000000            0.0000000            0.0000000
 Quadrupole ZZ       :        -35.9955922           21.6926956          -14.3028966
 Traceless XX        :          8.4217721           -7.2308985            1.1908736
 Traceless YY        :          8.4217721           -7.2308985            1.1908736
 Traceless ZZ        :        -16.8435442           14.4617971           -2.3817472

 ------------------------------------------------------------------------------------
  ==> Computing MBIS Charges <==

  Electron Count from Grid (Expected Number): 14.00000 (14.00000)
  Difference:  0.00000

  MBIS Charges: (a.u.)
   Center  Symbol  Z      Pop.       Charge
      1       N    7    7.544826   -0.544826
      2       C    6    6.455175   -0.455175

  MBIS Dipoles: [e a0]
   Center  Symbol  Z        X           Y           Z
      1       N    7   -0.000000    0.000000    0.055591
      2       C    6   -0.000000    0.000000   -0.237614

  MBIS Quadrupoles: [e a0^2]
   Center  Symbol  Z      XX        XY        XZ        YY        YZ        ZZ
      1       N    7   -5.0504   -0.0000    0.0000   -5.0504    0.0000   -5.4353
      2       C    6   -5.6799    0.0000   -0.0000   -5.6799    0.0000   -6.4061

  MBIS Octupoles: [e a0^3]
   Center  Symbol  Z      XXX       XXY       XXZ       XYY       XYZ       XZZ       YYY       YYZ       YZZ       ZZZ
      1       N    7    0.0000   -0.0000   -0.0087    0.0000    0.0000   -0.0000   -0.0000   -0.0087   -0.0000    0.0998
      2       C    6   -0.0000   -0.0000   -0.1669   -0.0000   -0.0000    0.0000    0.0000   -0.1669    0.0000   -0.5282

  MBIS Radial Moments:
   Center  Symbol  Z      [a0^2]      [a0^3]      [a0^4]
      1       N    7   15.536053   35.470411   96.311773
      2       C    6   17.765927   47.479119   149.356705

  MBIS Valence Widths: [a0]
   Center  Symbol  Z     Width
      1       N    7    0.472272
      2       C    6    0.563355

*** tstop() called on Mac.lan at Sun Aug 10 17:40:42 2025
Module time:
	user time   =       3.24 seconds =       0.05 minutes
	system time =       1.93 seconds =       0.03 minutes
	total time  =          1 seconds =       0.02 minutes
Total time:
	user time   =      16.17 seconds =       0.27 minutes
	system time =       3.95 seconds =       0.07 minutes
	total time  =          2 seconds =       0.03 minutes

    Psi4 stopped on: Sunday, 10 August 2025 05:40PM
    Psi4 wall time for execution: 0:00:01.96

*** Psi4 exiting successfully. Buy a developer a beer!
