                               Psi4 1.9.1 release

  ==> Input File <==

--------------------------------------------------------------------------
molecule {
-1 2
C           0.000000           0.000000           0.000000
C           0.000000           0.000000           0.941104
}

set {
basis              cc-pvtz
reference          uks
maxiter            500
DAMPING_PERCENTAGE 1
E_CONVERGENCE      1.0E-8
D_CONVERGENCE      1.0E-8
DIIS_MAX_VECS      400
MBIS_MAXITER       8000
guess              read
}

E, wfn = energy('b3lyp', restart_file='last_wfn', return_wfn=True)
properties('b3lyp','MBIS_CHARGES', wfn=wfn)
wfn.to_file('last_wfn')
--------------------------------------------------------------------------

    Molecular point group: d2h
  Charge       = -1
  Multiplicity = 2
  Basis Set: CC-PVTZ
    Blend: CC-PVTZ
  Basis Set: (CC-PVTZ AUX)
    Blend: CC-PVTZ-JKFIT
  @DF-UKS Final Energy:   -75.78143792124557
    Total Energy =                        -75.7814379212455691
 Dipole X            :          0.0000000            0.0000000            0.0000000
 Dipole Y            :          0.0000000            0.0000000            0.0000000
 Dipole Z            :          0.0000000            0.0000000            0.0000000
 Magnitude           :                                                    0.0000000
    Molecular point group: d2h

    Geometry (in Angstrom), charge = -1, multiplicity = 2:

       Center              X                  Y                   Z               Mass
    ------------   -----------------  -----------------  -----------------  -----------------
         C            0.000000000000     0.000000000000    -0.470552000000    12.000000000000
         C            0.000000000000     0.000000000000     0.470552000000    12.000000000000

  Charge       = -1
  Multiplicity = 2
  Basis Set: CC-PVTZ
    Blend: CC-PVTZ
  Basis Set: (CC-PVTZ AUX)
    Blend: CC-PVTZ-JKFIT

    Orbital Energies [Eh]
    ---------------------

    Alpha Occupied:

       1Ag    -9.839547     1B1u   -9.816174     2Ag    -0.509176
       1B2u   -0.064100     1B3u   -0.064100     2B1u   -0.049390
       3Ag    -0.021684

    Alpha Virtual:

       1B3g    0.377486     1B2g    0.377486     3B1u    0.403640
       4Ag     0.485582     2B2u    0.503549     2B3u    0.503549
       5Ag     0.655884     2B3g    0.710807     2B2g    0.710807
       4B1u    0.870187     6Ag     0.880550     1B1g    0.880550
       3B2u    1.171080     3B3u    1.171080     5B1u    1.190297
       6B1u    1.228972     1Au     1.228972     7Ag     1.365979
       3B3g    1.438390     3B2g    1.438390     4B3u    2.155842
       4B2u    2.155842     7B1u    2.345722     8Ag     2.550876
       4B3g    2.709335     4B2g    2.709335     8B1u    2.776560
       5B2u    2.776579     5B3u    2.776579     9Ag     2.827895
       2B1g    2.827895     6B3u    3.029620     6B2u    3.029620
      10Ag     3.181690     5B3g    3.306229     5B2g    3.306229
       9B1u    3.311498     2Au     3.311498    11Ag     3.389385
       3B1g    3.389385     6B3g    3.394445     6B2g    3.394445
      12Ag     3.791556    10B1u    3.915304     7B3u    4.202660
       7B2u    4.202660    11B1u    4.395743     3Au     4.395743
      12B1u    5.408478     7B3g    5.635559     7B2g    5.635559
      13Ag     6.495288    13B1u   18.580467

    Beta Occupied:

       1Ag    -9.828837     1B1u   -9.806514     2Ag    -0.474226
       1B2u   -0.054034     1B3u   -0.054034     2B1u    0.013314

    Beta Virtual:

       3Ag     0.112419     1B3g    0.389432     1B2g    0.389432
       3B1u    0.415943     4Ag     0.506362     2B2u    0.508684
       2B3u    0.508684     5Ag     0.681046     2B3g    0.723479
       2B2g    0.723479     6Ag     0.883492     1B1g    0.883492
       4B1u    0.891335     3B2u    1.194405     3B3u    1.194405
       5B1u    1.214069     6B1u    1.237257     1Au     1.237257
       7Ag     1.400226     3B3g    1.454041     3B2g    1.454041
       4B3u    2.165532     4B2u    2.165532     7B1u    2.396754
       8Ag     2.579164     4B3g    2.718066     4B2g    2.718066
       5B2u    2.778202     5B3u    2.778202     8B1u    2.798282
       9Ag     2.833704     2B1g    2.833705     6B3u    3.072757
       6B2u    3.072757    10Ag     3.239364     9B1u    3.330644
       2Au     3.330644     5B3g    3.346346     5B2g    3.346346
       6B3g    3.399494     6B2g    3.399494    11Ag     3.408818
       3B1g    3.408818    12Ag     3.822388    10B1u    3.956869
       7B3u    4.233067     7B2u    4.233067    11B1u    4.406481
       3Au     4.406481    12B1u    5.453744     7B3g    5.664993
       7B2g    5.664993    13Ag     6.518955    13B1u   18.597664

    Final Occupation by Irrep:
             Ag   B1g   B2g   B3g    Au   B1u   B2u   B3u
    DOCC [     2,    0,    0,    0,    0,    2,    1,    1 ]
    SOCC [     1,    0,    0,    0,    0,    0,    0,    0 ]
    NA   [     3,    0,    0,    0,    0,    2,    1,    1 ]
    NB   [     2,    0,    0,    0,    0,    2,    1,    1 ]

  @DF-UKS Final Energy:   -75.78143792252837

   => Energetics <=

    Nuclear Repulsion Energy =             20.2425869873255238
    One-Electron Energy =                -144.9349332568421005
    Two-Electron Energy =                  58.0013147114622427
    DFT Exchange-Correlation Energy =      -9.0904063644740258
    Empirical Dispersion Energy =           0.0000000000000000
    VV10 Nonlocal Energy =                  0.0000000000000000
    Total Energy =                        -75.7814379225283545

  UHF NO Occupations:
  HONO-2 :    2 Ag 1.9997392
  HONO-1 :    2B1u 1.9984920
  HONO-0 :    3 Ag 1.0000000
  LUNO+0 :    3B1u 0.0015080
  LUNO+1 :    4 Ag 0.0002608
  LUNO+2 :    2B2u 0.0000637
  LUNO+3 :    2B3u 0.0000637

Computation Completed

Properties will be evaluated at   0.000000,   0.000000,   0.000000 [a0]

Properties computed using the B3LYP density matrix

 Multipole Moments:

 ------------------------------------------------------------------------------------
     Multipole            Electronic (a.u.)      Nuclear  (a.u.)        Total (a.u.)
 ------------------------------------------------------------------------------------

 L = 1.  Multiply by 2.5417464519 to convert [e a0] to [Debye]
 Dipole X            :          0.0000000            0.0000000            0.0000000
 Dipole Y            :          0.0000000            0.0000000            0.0000000
 Dipole Z            :          0.0000000            0.0000000            0.0000000
 Magnitude           :                                                    0.0000000

 L = 2.  Multiply by 1.3450342976 to convert [e a0^2] to [Debye ang]
 Quadrupole XX       :        -10.2997633            0.0000000          -10.2997633
 Quadrupole XY       :          0.0000000            0.0000000            0.0000000
 Quadrupole XZ       :          0.0000000            0.0000000            0.0000000
 Quadrupole YY       :        -10.2997633            0.0000000          -10.2997633
 Quadrupole YZ       :          0.0000000            0.0000000            0.0000000
 Quadrupole ZZ       :        -22.7123920            9.4884272          -13.2239648
 Traceless XX        :          4.1375429           -3.1628091            0.9747338
 Traceless YY        :          4.1375429           -3.1628091            0.9747338
 Traceless ZZ        :         -8.2750858            6.3256181           -1.9494677

 ------------------------------------------------------------------------------------
  ==> Computing MBIS Charges <==

  Electron Count from Grid (Expected Number): 13.00000 (13.00000)
  Difference:  0.00000

  MBIS Charges: (a.u.)
   Center  Symbol  Z      Pop.       Charge
      1       C    6    6.500000   -0.500000
      2       C    6    6.500000   -0.500000

  MBIS Dipoles: [e a0]
   Center  Symbol  Z        X           Y           Z
      1       C    6   -0.000000    0.000000    0.056759
      2       C    6   -0.000000    0.000000   -0.056759

  MBIS Quadrupoles: [e a0^2]
   Center  Symbol  Z      XX        XY        XZ        YY        YZ        ZZ
      1       C    6   -5.1499    0.0000   -0.0000   -5.1499   -0.0000   -6.1157
      2       C    6   -5.1499    0.0000    0.0000   -5.1499    0.0000   -6.1157

  MBIS Octupoles: [e a0^3]
   Center  Symbol  Z      XXX       XXY       XXZ       XYY       XYZ       XZZ       YYY       YYZ       YZZ       ZZZ
      1       C    6   -0.0000   -0.0000    0.3702   -0.0000    0.0000   -0.0000    0.0000    0.3702    0.0000    1.5360
      2       C    6   -0.0000   -0.0000   -0.3702   -0.0000   -0.0000   -0.0000    0.0000   -0.3702    0.0000   -1.5360

  MBIS Radial Moments:
   Center  Symbol  Z      [a0^2]      [a0^3]      [a0^4]
      1       C    6   16.415453   43.085594   135.525358
      2       C    6   16.415453   43.085594   135.525358

  MBIS Valence Widths: [a0]
   Center  Symbol  Z     Width
      1       C    6    0.533071
      2       C    6    0.533071

*** tstop() called on Mac.lan at Sun Aug 10 17:29:48 2025
Module time:
	user time   =       3.99 seconds =       0.07 minutes
	system time =       2.46 seconds =       0.04 minutes
	total time  =          0 seconds =       0.00 minutes
Total time:
	user time   =      17.13 seconds =       0.29 minutes
	system time =       4.71 seconds =       0.08 minutes
	total time  =          2 seconds =       0.03 minutes

    Psi4 stopped on: Sunday, 10 August 2025 05:29PM
    Psi4 wall time for execution: 0:00:02.13

*** Psi4 exiting successfully. Buy a developer a beer!
