                               Psi4 1.9.1 release

  ==> Input File <==

--------------------------------------------------------------------------
molecule {
-1 2
O           0.000000           0.000000           0.000000
C           0.000000           0.000000           1.288664
}

set {
basis              cc-pvtz
reference          uks
maxiter            500
DAMPING_PERCENTAGE 1
E_CONVERGENCE      1.0E-8
D_CONVERGENCE      1.0E-8
DIIS_MAX_VECS      400
MBIS_MAXITER       8000
guess              read
}

E, wfn = energy('b3lyp', restart_file='last_wfn', return_wfn=True)
properties('b3lyp','MBIS_CHARGES', wfn=wfn)
wfn.to_file('last_wfn')
--------------------------------------------------------------------------

    Molecular point group: c2v
  Charge       = -1
  Multiplicity = 2
  Basis Set: CC-PVTZ
    Blend: CC-PVTZ
  Basis Set: (CC-PVTZ AUX)
    Blend: CC-PVTZ-JKFIT
  @DF-UKS Final Energy:  -113.28164424149602
    Total Energy =                       -113.2816442414960250
 Dipole X            :          0.0000000            0.0000000            0.0000000
 Dipole Y            :          0.0000000            0.0000000            0.0000000
 Dipole Z            :         -0.6537021           -0.0026542           -0.6563563
 Magnitude           :                                                    0.6563563
    Molecular point group: c2v

    Geometry (in Angstrom), charge = -1, multiplicity = 2:

       Center              X                  Y                   Z               Mass
    ------------   -----------------  -----------------  -----------------  -----------------
         O            0.000000000000     0.000000000000    -0.552384895976    15.994914619570
         C            0.000000000000     0.000000000000     0.736279104024    12.000000000000

  Charge       = -1
  Multiplicity = 2
  Basis Set: CC-PVTZ
    Blend: CC-PVTZ
  Basis Set: (CC-PVTZ AUX)
    Blend: CC-PVTZ-JKFIT

    Orbital Energies [Eh]
    ---------------------

    Alpha Occupied:

       1A1   -18.859018     2A1    -9.933743     3A1    -0.729908
       4A1    -0.243118     1B1    -0.108618     1B2    -0.090423
       5A1    -0.055139     2B1     0.154704

    Alpha Virtual:

       2B2     0.242375     6A1     0.403973     3B1     0.551882
       3B2     0.566323     7A1     0.577926     8A1     0.749395
       9A1     0.815677     4B1     0.894975     4B2     0.897838
       1A2     0.939192    10A1     0.941844     5B1     1.110570
       5B2     1.112160    11A1     1.391261    12A1     1.503537
       2A2     1.796099    13A1     1.796799     6B1     2.093811
       6B2     2.099134    14A1     2.318916     7B1     2.331402
       7B2     2.340027    15A1     2.570924     8B1     2.967643
       8B2     2.968344     3A2     3.074731    16A1     3.076719
       4A2     3.253314    17A1     3.258423     9B1     3.259670
       9B2     3.266761    18A1     3.461875    10B1     3.481806
      10B2     3.485228    19A1     3.529224    11B1     4.225112
      11B2     4.226666    20A1     4.321454    12B1     5.412735
      12B2     5.412775     5A2     5.639642    21A1     5.640147
      22A1     5.970720    13B2     6.177058    13B1     6.178552
       6A2     6.541527    23A1     6.542577    24A1     6.704108
      14B1     7.019149    14B2     7.020509    25A1     7.379462
      26A1    10.370749

    Beta Occupied:

       1A1   -18.851465     2A1    -9.923401     3A1    -0.714471
       4A1    -0.219208     1B2    -0.084538     1B1    -0.059116
       5A1    -0.032555

    Beta Virtual:

       2B2     0.253248     2B1     0.284560     6A1     0.408150
       3B2     0.573514     7A1     0.593527     3B1     0.597929
       8A1     0.764922     9A1     0.821648     4B2     0.899975
       4B1     0.913820     1A2     0.968391    10A1     0.968939
       5B2     1.113861     5B1     1.137865    11A1     1.400379
      12A1     1.511670     2A2     1.809627    13A1     1.809778
       6B2     2.102132     6B1     2.123777    14A1     2.332843
       7B2     2.348166     7B1     2.379046    15A1     2.581323
       8B2     3.007632     8B1     3.007731    16A1     3.097714
       3A2     3.097754     9B2     3.270048     9B1     3.298731
      17A1     3.304237     4A2     3.305559    18A1     3.477975
      10B2     3.488258    10B1     3.514486    19A1     3.542685
      11B2     4.230638    11B1     4.254196    20A1     4.331394
      12B2     5.429214    12B1     5.429217    21A1     5.651275
       5A2     5.651484    22A1     5.980717    13B2     6.179287
      13B1     6.199657    23A1     6.568026     6A2     6.568178
      24A1     6.714164    14B2     7.022911    14B1     7.043247
      25A1     7.389913    26A1    10.384007

    Final Occupation by Irrep:
             A1    A2    B1    B2
    DOCC [     5,    0,    1,    1 ]
    SOCC [     0,    0,    1,    0 ]
    NA   [     5,    0,    2,    1 ]
    NB   [     5,    0,    1,    1 ]

  @DF-UKS Final Energy:  -113.28164423607906

   => Energetics <=

    Nuclear Repulsion Energy =             19.7107284072186388
    One-Electron Energy =                -198.0291013732737326
    Two-Electron Energy =                  76.4440775098857017
    DFT Exchange-Correlation Energy =     -11.4073487799096487
    Empirical Dispersion Energy =           0.0000000000000000
    VV10 Nonlocal Energy =                  0.0000000000000000
    Total Energy =                       -113.2816442360790603

  UHF NO Occupations:
  HONO-2 :    1 B1 1.9992667
  HONO-1 :    5 A1 1.9992124
  HONO-0 :    2 B1 1.0000000
  LUNO+0 :    6 A1 0.0007876
  LUNO+1 :    3 B1 0.0007333
  LUNO+2 :    2 B2 0.0000690
  LUNO+3 :    7 A1 0.0000532

Computation Completed

Properties will be evaluated at   0.000000,   0.000000,   0.000000 [a0]

Properties computed using the B3LYP density matrix

 Multipole Moments:

 ------------------------------------------------------------------------------------
     Multipole            Electronic (a.u.)      Nuclear  (a.u.)        Total (a.u.)
 ------------------------------------------------------------------------------------

 L = 1.  Multiply by 2.5417464519 to convert [e a0] to [Debye]
 Dipole X            :          0.0000000            0.0000000            0.0000000
 Dipole Y            :          0.0000000            0.0000000            0.0000000
 Dipole Z            :         -0.6537021           -0.0026542           -0.6563563
 Magnitude           :                                                    0.6563563

 L = 2.  Multiply by 1.3450342976 to convert [e a0^2] to [Debye ang]
 Quadrupole XX       :        -11.2717593            0.0000000          -11.2717593
 Quadrupole XY       :          0.0000000            0.0000000            0.0000000
 Quadrupole XZ       :          0.0000000            0.0000000            0.0000000
 Quadrupole YY       :         -9.6395923            0.0000000           -9.6395923
 Quadrupole YZ       :          0.0000000            0.0000000            0.0000000
 Quadrupole ZZ       :        -34.1120649           20.3324793          -13.7795856
 Traceless XX        :          7.0693796           -6.7774931            0.2918865
 Traceless YY        :          8.7015465           -6.7774931            1.9240534
 Traceless ZZ        :        -15.7709261           13.5549862           -2.2159399

 ------------------------------------------------------------------------------------
  ==> Computing MBIS Charges <==

  Electron Count from Grid (Expected Number): 15.00000 (15.00000)
  Difference: -0.00000

  MBIS Charges: (a.u.)
   Center  Symbol  Z      Pop.       Charge
      1       O    8    8.405375   -0.405375
      2       C    6    6.594625   -0.594625

  MBIS Dipoles: [e a0]
   Center  Symbol  Z        X           Y           Z
      1       O    8    0.000000   -0.000000    0.103573
      2       C    6   -0.000000    0.000000   -0.355742

  MBIS Quadrupoles: [e a0^2]
   Center  Symbol  Z      XX        XY        XZ        YY        YZ        ZZ
      1       O    8   -4.2964   -0.0000   -0.0000   -4.0840   -0.0000   -4.3522
      2       C    6   -6.9753   -0.0000    0.0000   -5.5556    0.0000   -6.6283

  MBIS Octupoles: [e a0^3]
   Center  Symbol  Z      XXX       XXY       XXZ       XYY       XYZ       XZZ       YYY       YYZ       YZZ       ZZZ
      1       O    8   -0.0000    0.0000    0.1325   -0.0000    0.0000    0.0000   -0.0000    0.1638    0.0000    0.1620
      2       C    6   -0.0000    0.0000   -0.9657   -0.0000    0.0000   -0.0000    0.0000   -0.2508    0.0000   -0.2719

  MBIS Radial Moments:
   Center  Symbol  Z      [a0^2]      [a0^3]      [a0^4]
      1       O    8   12.732666   24.757407   57.710208
      2       C    6   19.159263   52.615492   169.618680

  MBIS Valence Widths: [a0]
   Center  Symbol  Z     Width
      1       O    8    0.397316
      2       C    6    0.576715

*** tstop() called on Mac.lan at Sun Aug 10 17:43:10 2025
Module time:
	user time   =       3.73 seconds =       0.06 minutes
	system time =       2.24 seconds =       0.04 minutes
	total time  =          1 seconds =       0.02 minutes
Total time:
	user time   =      19.71 seconds =       0.33 minutes
	system time =       4.59 seconds =       0.08 minutes
	total time  =          3 seconds =       0.05 minutes

    Psi4 stopped on: Sunday, 10 August 2025 05:43PM
    Psi4 wall time for execution: 0:00:02.36

*** Psi4 exiting successfully. Buy a developer a beer!
