                               Psi4 1.9.1 release

  ==> Input File <==

--------------------------------------------------------------------------
molecule {
-1 3
O           0.000000           0.000000           0.000000
N           0.000000           0.000000           1.397184
}

set {
basis              cc-pvtz
reference          uks
maxiter            500
DAMPING_PERCENTAGE 1
E_CONVERGENCE      1.0E-8
D_CONVERGENCE      1.0E-8
DIIS_MAX_VECS      400
MBIS_MAXITER       8000
guess              read
}

E, wfn = energy('b3lyp', restart_file='last_wfn', return_wfn=True)
properties('b3lyp','MBIS_CHARGES', wfn=wfn)
wfn.to_file('last_wfn')
--------------------------------------------------------------------------

    Molecular point group: c2v
  Charge       = -1
  Multiplicity = 3
  Basis Set: CC-PVTZ
    Blend: CC-PVTZ
  Basis Set: (CC-PVTZ AUX)
    Blend: CC-PVTZ-JKFIT
  @DF-UKS Final Energy:  -129.91816628622715
    Total Energy =                       -129.9181662862271480
 Dipole X            :          0.0000000            0.0000000            0.0000000
 Dipole Y            :          0.0000000            0.0000000            0.0000000
 Dipole Z            :         -0.1377029           -0.0052976           -0.1430005
 Magnitude           :                                                    0.1430005
    Molecular point group: c2v

    Geometry (in Angstrom), charge = -1, multiplicity = 3:

       Center              X                  Y                   Z               Mass
    ------------   -----------------  -----------------  -----------------  -----------------
         O            0.000000000000     0.000000000000    -0.652206092716    15.994914619570
         N            0.000000000000     0.000000000000     0.744977907284    14.003074004430

  Charge       = -1
  Multiplicity = 3
  Basis Set: CC-PVTZ
    Blend: CC-PVTZ
  Basis Set: (CC-PVTZ AUX)
    Blend: CC-PVTZ-JKFIT

    Orbital Energies [Eh]
    ---------------------

    Alpha Occupied:

       1A1   -18.842724     2A1   -14.058690     3A1    -0.708053
       4A1    -0.367861     1B2    -0.091935     1B1    -0.091935
       5A1    -0.089018     2B2     0.087838     2B1     0.087838

    Alpha Virtual:

       6A1     0.432134     7A1     0.713708     3B2     0.725672
       3B1     0.725672     8A1     0.779104     9A1     0.879541
       4B1     0.899897     4B2     0.899897    10A1     1.288942
       1A2     1.288942     5B1     1.372744     5B2     1.372744
      11A1     1.474402     2A2     1.822296    12A1     1.822296
      13A1     1.858946     6B1     2.208971     6B2     2.208971
      14A1     2.397870     7B2     3.138268     7B1     3.138268
      15A1     3.404978     8B1     3.819057     8B2     3.819057
       3A2     4.137987    16A1     4.137987    17A1     4.142486
       9B2     4.165397     9B1     4.165397    10B1     4.351162
      10B2     4.351162    18A1     4.665041    19A1     4.704060
       4A2     4.704068    11B1     4.949174    11B2     4.949174
      20A1     5.050757    12B1     5.431110    12B2     5.431110
      21A1     5.591790     5A2     5.591791    22A1     5.752121
      13B1     6.157147    13B2     6.157147     6A2     6.518241
      23A1     6.518254    24A1     6.703331    14B2     6.957988
      14B1     6.957988    25A1     7.738624    26A1     9.442629

    Beta Occupied:

       1A1   -18.824776     2A1   -14.028889     3A1    -0.663484
       4A1    -0.287917     5A1    -0.058255     1B2    -0.015973
       1B1    -0.015973

    Beta Virtual:

       2B2     0.256307     2B1     0.256307     6A1     0.461115
       7A1     0.732251     3B2     0.780171     3B1     0.780171
       8A1     0.806205     9A1     0.895203     4B2     0.929379
       4B1     0.929379     1A2     1.346857    10A1     1.346857
       5B1     1.401676     5B2     1.401676    11A1     1.495256
      12A1     1.858795     2A2     1.858796    13A1     1.885166
       6B1     2.236298     6B2     2.236298    14A1     2.417229
       7B2     3.220434     7B1     3.220434    15A1     3.427004
       8B1     3.864173     8B2     3.864173    16A1     4.179083
       3A2     4.190942    17A1     4.190943     9B2     4.255063
       9B1     4.255063    10B1     4.391552    10B2     4.391552
      18A1     4.688044    19A1     4.826211     4A2     4.826219
      11B1     5.009395    11B2     5.009395    20A1     5.102016
      12B1     5.473913    12B2     5.473913    21A1     5.622511
       5A2     5.622513    22A1     5.778449    13B1     6.185853
      13B2     6.185853     6A2     6.583118    23A1     6.583130
      24A1     6.721964    14B2     6.990022    14B1     6.990022
      25A1     7.770883    26A1     9.474063

    Final Occupation by Irrep:
             A1    A2    B1    B2
    DOCC [     5,    0,    1,    1 ]
    SOCC [     0,    0,    1,    1 ]
    NA   [     5,    0,    2,    2 ]
    NB   [     5,    0,    1,    1 ]

  @DF-UKS Final Energy:  -129.91816628642280

   => Energetics <=

    Nuclear Repulsion Energy =             21.2097503245957597
    One-Electron Energy =                -225.2188495030555657
    Two-Electron Energy =                  86.7038398817069691
    DFT Exchange-Correlation Energy =     -12.6129069896699892
    Empirical Dispersion Energy =           0.0000000000000000
    VV10 Nonlocal Energy =                  0.0000000000000000
    Total Energy =                       -129.9181662864228031

  UHF NO Occupations:
  HONO-2 :    1 B1 1.9984059
  HONO-1 :    2 B1 1.0000000
  HONO-0 :    2 B2 1.0000000
  LUNO+0 :    3 B1 0.0015941
  LUNO+1 :    3 B2 0.0015941
  LUNO+2 :    6 A1 0.0013116
  LUNO+3 :    7 A1 0.0002097

Computation Completed

Properties will be evaluated at   0.000000,   0.000000,   0.000000 [a0]

Properties computed using the B3LYP density matrix

 Multipole Moments:

 ------------------------------------------------------------------------------------
     Multipole            Electronic (a.u.)      Nuclear  (a.u.)        Total (a.u.)
 ------------------------------------------------------------------------------------

 L = 1.  Multiply by 2.5417464519 to convert [e a0] to [Debye]
 Dipole X            :          0.0000000            0.0000000            0.0000000
 Dipole Y            :          0.0000000            0.0000000            0.0000000
 Dipole Z            :         -0.1377029           -0.0052976           -0.1430006
 Magnitude           :                                                    0.1430006

 L = 2.  Multiply by 1.3450342976 to convert [e a0^2] to [Debye ang]
 Quadrupole XX       :         -9.7069258            0.0000000           -9.7069258
 Quadrupole XY       :          0.0000000            0.0000000            0.0000000
 Quadrupole XZ       :          0.0000000            0.0000000            0.0000000
 Quadrupole YY       :         -9.7069258            0.0000000           -9.7069258
 Quadrupole YZ       :          0.0000000            0.0000000            0.0000000
 Quadrupole ZZ       :        -38.3311853           26.0256593          -12.3055260
 Traceless XX        :          9.5414198           -8.6752198            0.8662001
 Traceless YY        :          9.5414198           -8.6752198            0.8662001
 Traceless ZZ        :        -19.0828397           17.3504396           -1.7324001

 ------------------------------------------------------------------------------------
  ==> Computing MBIS Charges <==

  Electron Count from Grid (Expected Number): 16.00000 (16.00000)
  Difference: -0.00000

  MBIS Charges: (a.u.)
   Center  Symbol  Z      Pop.       Charge
      1       O    8    8.510793   -0.510793
      2       N    7    7.489206   -0.489206

  MBIS Dipoles: [e a0]
   Center  Symbol  Z        X           Y           Z
      1       O    8   -0.000000   -0.000000    0.146774
      2       N    7   -0.000000    0.000000   -0.230617

  MBIS Quadrupoles: [e a0^2]
   Center  Symbol  Z      XX        XY        XZ        YY        YZ        ZZ
      1       O    8   -4.5479    0.0000    0.0000   -4.5479   -0.0000   -4.4453
      2       N    7   -5.1590    0.0000    0.0000   -5.1590    0.0000   -5.1037

  MBIS Octupoles: [e a0^3]
   Center  Symbol  Z      XXX       XXY       XXZ       XYY       XYZ       XZZ       YYY       YYZ       YZZ       ZZZ
      1       O    8   -0.0000   -0.0000    0.1748   -0.0000    0.0000    0.0000   -0.0000    0.1748    0.0000    0.0082
      2       N    7   -0.0000    0.0000   -0.2300    0.0000   -0.0000    0.0000   -0.0000   -0.2300    0.0000    0.1864

  MBIS Radial Moments:
   Center  Symbol  Z      [a0^2]      [a0^3]      [a0^4]
      1       O    8   13.541088   27.020005   64.357778
      2       N    7   15.421693   35.198577   95.090111

  MBIS Valence Widths: [a0]
   Center  Symbol  Z     Width
      1       O    8    0.406683
      2       N    7    0.473040

*** tstop() called on Mac.lan at Sun Aug 10 17:47:00 2025
Module time:
	user time   =       3.92 seconds =       0.07 minutes
	system time =       1.31 seconds =       0.02 minutes
	total time  =          0 seconds =       0.00 minutes
Total time:
	user time   =      18.67 seconds =       0.31 minutes
	system time =       3.75 seconds =       0.06 minutes
	total time  =          2 seconds =       0.03 minutes

    Psi4 stopped on: Sunday, 10 August 2025 05:47PM
    Psi4 wall time for execution: 0:00:02.17

*** Psi4 exiting successfully. Buy a developer a beer!
