                               Psi4 1.9.1 release

  ==> Input File <==

--------------------------------------------------------------------------
molecule {
-1 2
N           0.000000           0.000000           0.000000
N           0.000000           0.000000           0.583342
}

set {
basis              cc-pvtz
reference          uks
maxiter            500
DAMPING_PERCENTAGE 1
E_CONVERGENCE      1.0E-8
D_CONVERGENCE      1.0E-8
DIIS_MAX_VECS      400
MBIS_MAXITER       8000
guess              read
}

E, wfn = energy('b3lyp', restart_file='last_wfn', return_wfn=True)
properties('b3lyp','MBIS_CHARGES', wfn=wfn)
wfn.to_file('last_wfn')
--------------------------------------------------------------------------

    Molecular point group: d2h
  Charge       = -1
  Multiplicity = 2
  Basis Set: CC-PVTZ
    Blend: CC-PVTZ
  Basis Set: (CC-PVTZ AUX)
    Blend: CC-PVTZ-JKFIT
  @DF-UKS Final Energy:  -106.14690758980230
    Total Energy =                       -106.1469075898022965
 Dipole X            :          0.0000000            0.0000000            0.0000000
 Dipole Y            :          0.0000000            0.0000000            0.0000000
 Dipole Z            :          0.0000000           -0.0000000           -0.0000000
 Magnitude           :                                                    0.0000000
    Molecular point group: d2h

    Geometry (in Angstrom), charge = -1, multiplicity = 2:

       Center              X                  Y                   Z               Mass
    ------------   -----------------  -----------------  -----------------  -----------------
         N            0.000000000000     0.000000000000    -0.291671000000    14.003074004430
         N            0.000000000000     0.000000000000     0.291671000000    14.003074004430

  Charge       = -1
  Multiplicity = 2
  Basis Set: CC-PVTZ
    Blend: CC-PVTZ
  Basis Set: (CC-PVTZ AUX)
    Blend: CC-PVTZ-JKFIT

    Orbital Energies [Eh]
    ---------------------

    Alpha Occupied:

       1Ag   -14.260473     1B1u  -13.966629     2Ag    -0.796129
       1B2u   -0.472934     1B3u   -0.470569     3Ag    -0.110386
       2B1u   -0.071536     1B2g    0.448572

    Alpha Virtual:

       1B3g    0.521238     3B1u    0.541985     2B3u    0.556496
       2B2u    0.560378     4Ag     0.616561     5Ag     0.848910
       2B2g    1.004710     2B3g    1.019619     1B1g    1.161897
       6Ag     1.162653     4B1u    1.205641     3B3u    1.708872
       3B2u    1.710510     1Au     1.724401     5B1u    1.726743
       7Ag     1.792370     6B1u    1.806122     3B2g    2.083998
       3B3g    2.090229     4B2u    2.641581     4B3u    2.648022
       8Ag     3.379872     7B1u    3.749712     5B3u    3.798943
       5B2u    3.798963     2B1g    3.942440     9Ag     3.942812
       4B2g    4.005481     4B3g    4.006807     8B1u    4.331193
       6B3u    4.411227     6B2u    4.412743     2Au     4.451587
       9B1u    4.452731    10Ag     4.777110     5B2g    4.946455
       5B3g    4.946492     3B1g    5.013327    11Ag     5.013737
       6B3g    5.082223     6B2g    5.083172    12Ag     5.239153
      10B1u    6.136963     7B2u    7.007960     7B3u    7.010509
       3Au     7.257543    11B1u    7.258047    13Ag     7.944280
       7B2g    9.092186     7B3g    9.093143    12B1u   10.757731
      13B1u   30.691471

    Beta Occupied:

       1Ag   -14.259537     1B1u  -13.965532     2Ag    -0.792597
       1B2u   -0.471684     1B3u   -0.456488     3Ag    -0.101800
       2B1u   -0.054553

    Beta Virtual:

       1B3g    0.532846     1B2g    0.552316     3B1u    0.554385
       2B2u    0.564892     2B3u    0.585997     4Ag     0.630009
       5Ag     0.855025     2B3g    1.026074     2B2g    1.043037
       1B1g    1.170827     6Ag     1.171237     4B1u    1.229825
       3B2u    1.712575     3B3u    1.733835     5B1u    1.752094
       1Au     1.752628     7Ag     1.795085     6B1u    1.814373
       3B3g    2.094177     3B2g    2.110673     4B2u    2.643316
       4B3u    2.659467     8Ag     3.385383     7B1u    3.758956
       5B2u    3.805016     5B3u    3.805018     2B1g    3.947710
       9Ag     3.947833     4B3g    4.009826     4B2g    4.027021
       8B1u    4.335913     6B2u    4.412547     6B3u    4.426536
       2Au     4.468625     9B1u    4.468830    10Ag     4.783140
       5B3g    4.960622     5B2g    4.960641     3B1g    5.023773
      11Ag     5.024185     6B3g    5.082756     6B2g    5.098175
      12Ag     5.242354    10B1u    6.142567     7B2u    7.008049
       7B3u    7.020812     3Au     7.267750    11B1u    7.267792
      13Ag     7.948429     7B3g    9.094254     7B2g    9.106575
      12B1u   10.758756    13B1u   30.694013

    Final Occupation by Irrep:
             Ag   B1g   B2g   B3g    Au   B1u   B2u   B3u
    DOCC [     3,    0,    0,    0,    0,    2,    1,    1 ]
    SOCC [     0,    0,    1,    0,    0,    0,    0,    0 ]
    NA   [     3,    0,    1,    0,    0,    2,    1,    1 ]
    NB   [     3,    0,    0,    0,    0,    2,    1,    1 ]

  @DF-UKS Final Energy:  -106.14690758995178

   => Energetics <=

    Nuclear Repulsion Energy =             44.4502252929327923
    One-Electron Energy =                -232.5953118061112264
    Two-Electron Energy =                  94.2679979113364652
    DFT Exchange-Correlation Energy =     -12.2698189881098259
    Empirical Dispersion Energy =           0.0000000000000000
    VV10 Nonlocal Energy =                  0.0000000000000000
    Total Energy =                       -106.1469075899517804

  UHF NO Occupations:
  HONO-2 :    3 Ag 1.9999138
  HONO-1 :    2B1u 1.9998607
  HONO-0 :    1B2g 1.0000000
  LUNO+0 :    3B1u 0.0001393
  LUNO+1 :    4 Ag 0.0000862
  LUNO+2 :    2B3u 0.0000551
  LUNO+3 :    5 Ag 0.0000026

Computation Completed

Properties will be evaluated at   0.000000,   0.000000,   0.000000 [a0]

Properties computed using the B3LYP density matrix

 Multipole Moments:

 ------------------------------------------------------------------------------------
     Multipole            Electronic (a.u.)      Nuclear  (a.u.)        Total (a.u.)
 ------------------------------------------------------------------------------------

 L = 1.  Multiply by 2.5417464519 to convert [e a0] to [Debye]
 Dipole X            :          0.0000000            0.0000000            0.0000000
 Dipole Y            :          0.0000000            0.0000000            0.0000000
 Dipole Z            :          0.0000000           -0.0000000           -0.0000000
 Magnitude           :                                                    0.0000000

 L = 2.  Multiply by 1.3450342976 to convert [e a0^2] to [Debye ang]
 Quadrupole XX       :        -10.5058651            0.0000000          -10.5058651
 Quadrupole XY       :          0.0000000            0.0000000            0.0000000
 Quadrupole XZ       :          0.0000000            0.0000000            0.0000000
 Quadrupole YY       :         -7.6799547            0.0000000           -7.6799547
 Quadrupole YZ       :          0.0000000            0.0000000            0.0000000
 Quadrupole ZZ       :        -17.3471738            4.2531654          -13.0940084
 Traceless XX        :          1.3384661           -1.4177218           -0.0792557
 Traceless YY        :          4.1643765           -1.4177218            2.7466547
 Traceless ZZ        :         -5.5028426            2.8354436           -2.6673990

 ------------------------------------------------------------------------------------
  ==> Computing MBIS Charges <==

  Electron Count from Grid (Expected Number): 15.00000 (15.00000)
  Difference:  0.00000

  MBIS Charges: (a.u.)
   Center  Symbol  Z      Pop.       Charge
      1       N    7    7.500001   -0.500001
      2       N    7    7.500001   -0.500001

  MBIS Dipoles: [e a0]
   Center  Symbol  Z        X           Y           Z
      1       N    7   -0.000000    0.000000    0.340491
      2       N    7   -0.000000   -0.000000   -0.340491

  MBIS Quadrupoles: [e a0^2]
   Center  Symbol  Z      XX        XY        XZ        YY        YZ        ZZ
      1       N    7   -5.2529   -0.0000    0.0000   -3.8400   -0.0000   -6.0198
      2       N    7   -5.2529   -0.0000   -0.0000   -3.8400    0.0000   -6.0198

  MBIS Octupoles: [e a0^3]
   Center  Symbol  Z      XXX       XXY       XXZ       XYY       XYZ       XZZ       YYY       YYZ       YZZ       ZZZ
      1       N    7   -0.0000    0.0000    1.6000   -0.0000    0.0000    0.0000    0.0000    0.6895    0.0000    1.5418
      2       N    7   -0.0000    0.0000   -1.6000    0.0000   -0.0000   -0.0000    0.0000   -0.6895    0.0000   -1.5418

  MBIS Radial Moments:
   Center  Symbol  Z      [a0^2]      [a0^3]      [a0^4]
      1       N    7   15.112673   37.479397   112.955377
      2       N    7   15.112673   37.479397   112.955377

  MBIS Valence Widths: [a0]
   Center  Symbol  Z     Width
      1       N    7    0.456840
      2       N    7    0.456840

*** tstop() called on Mac.lan at Sun Aug 10 17:33:04 2025
Module time:
	user time   =       4.01 seconds =       0.07 minutes
	system time =       2.48 seconds =       0.04 minutes
	total time  =          1 seconds =       0.02 minutes
Total time:
	user time   =      18.04 seconds =       0.30 minutes
	system time =       4.65 seconds =       0.08 minutes
	total time  =          2 seconds =       0.03 minutes

    Psi4 stopped on: Sunday, 10 August 2025 05:33PM
    Psi4 wall time for execution: 0:00:02.20

*** Psi4 exiting successfully. Buy a developer a beer!
