                               Psi4 1.9.1 release

  ==> Input File <==

--------------------------------------------------------------------------
molecule {
-1 1
N           0.000000           0.000000           0.000000
C           0.000000           0.000000           0.492108
}

set {
basis              cc-pvtz
reference          uks
maxiter            500
DAMPING_PERCENTAGE 1
E_CONVERGENCE      1.0E-8
D_CONVERGENCE      1.0E-8
DIIS_MAX_VECS      400
MBIS_MAXITER       8000
guess              read
}

E, wfn = energy('b3lyp', restart_file='last_wfn', return_wfn=True)
properties('b3lyp','MBIS_CHARGES', wfn=wfn)
wfn.to_file('last_wfn')
--------------------------------------------------------------------------

    Molecular point group: c2v
  Charge       = -1
  Multiplicity = 1
  Basis Set: CC-PVTZ
    Blend: CC-PVTZ
  Basis Set: (CC-PVTZ AUX)
    Blend: CC-PVTZ-JKFIT
  @DF-UKS Final Energy:   -87.23693940557072
    Total Energy =                        -87.2369394055707232
 Dipole X            :          0.0000000            0.0000000            0.0000000
 Dipole Y            :          0.0000000            0.0000000            0.0000000
 Dipole Z            :         -0.4290795            0.0006596           -0.4284199
 Magnitude           :                                                    0.4284199
    Molecular point group: c2v

    Geometry (in Angstrom), charge = -1, multiplicity = 1:

       Center              X                  Y                   Z               Mass
    ------------   -----------------  -----------------  -----------------  -----------------
         N            0.000000000000     0.000000000000    -0.227099918994    14.003074004430
         C            0.000000000000     0.000000000000     0.265008081006    12.000000000000

  Charge       = -1
  Multiplicity = 1
  Basis Set: CC-PVTZ
    Blend: CC-PVTZ
  Basis Set: (CC-PVTZ AUX)
    Blend: CC-PVTZ-JKFIT

    Orbital Energies [Eh]
    ---------------------

    Alpha Occupied:

       1A1   -14.523978     2A1   -10.413703     1B1    -0.505856
       1B2    -0.505856     3A1    -0.484047     4A1     0.045159
       5A1     0.229935

    Alpha Virtual:

       2B2     0.384810     2B1     0.384810     6A1     0.407994
       7A1     0.528018     3B1     0.598176     3B2     0.598176
       8A1     0.797016     1A2     0.925948     9A1     0.925949
       4B1     0.972917     4B2     0.972917    10A1     1.222151
       5B1     1.490722     5B2     1.490722    11A1     1.499690
       6B1     1.613247     6B2     1.613247     2A2     1.627519
      12A1     1.627519    13A1     1.833399    14A1     2.382424
       7B1     2.558465     7B2     2.558465     8B2     2.946096
       8B1     2.946096    15A1     3.123376     3A2     3.123376
      16A1     3.222660     9B1     3.362083     9B2     3.362083
       4A2     3.516019    17A1     3.516019    18A1     3.567250
      10B1     3.787478    10B2     3.787478    19A1     4.624023
      11B1     4.737059    11B2     4.737059    12B2     4.784435
      12B1     4.784435    20A1     4.798341     5A2     4.798341
      21A1     5.329381    22A1     5.947848    13B1     6.515733
      13B2     6.515733    23A1     6.903541     6A2     6.903541
      24A1     7.548584    14B1     8.447945    14B2     8.447945
      25A1    10.572330    26A1    25.091471

    Beta Occupied:

       1A1   -14.523978     2A1   -10.413703     1B1    -0.505856
       1B2    -0.505856     3A1    -0.484047     4A1     0.045159
       5A1     0.229935

    Beta Virtual:

       2B2     0.384810     2B1     0.384810     6A1     0.407994
       7A1     0.528018     3B1     0.598176     3B2     0.598176
       8A1     0.797016     1A2     0.925948     9A1     0.925949
       4B1     0.972917     4B2     0.972917    10A1     1.222151
       5B1     1.490722     5B2     1.490722    11A1     1.499690
       6B1     1.613247     6B2     1.613247     2A2     1.627519
      12A1     1.627519    13A1     1.833399    14A1     2.382424
       7B1     2.558465     7B2     2.558465     8B2     2.946096
       8B1     2.946096    15A1     3.123376     3A2     3.123376
      16A1     3.222660     9B1     3.362083     9B2     3.362083
       4A2     3.516019    17A1     3.516019    18A1     3.567250
      10B1     3.787478    10B2     3.787478    19A1     4.624023
      11B1     4.737059    11B2     4.737059    12B2     4.784435
      12B1     4.784435    20A1     4.798341     5A2     4.798341
      21A1     5.329381    22A1     5.947848    13B1     6.515733
      13B2     6.515733    23A1     6.903541     6A2     6.903541
      24A1     7.548584    14B1     8.447945    14B2     8.447945
      25A1    10.572330    26A1    25.091471

    Final Occupation by Irrep:
             A1    A2    B1    B2
    DOCC [     5,    0,    1,    1 ]
    SOCC [     0,    0,    0,    0 ]
    NA   [     5,    0,    1,    1 ]
    NB   [     5,    0,    1,    1 ]

  @DF-UKS Final Energy:   -87.23693940580523

   => Energetics <=

    Nuclear Repulsion Energy =             45.1637503315126025
    One-Electron Energy =                -204.5097516941538629
    Two-Electron Energy =                  83.2294947431389573
    DFT Exchange-Correlation Energy =     -11.1204327863029295
    Empirical Dispersion Energy =           0.0000000000000000
    VV10 Nonlocal Energy =                  0.0000000000000000
    Total Energy =                        -87.2369394058052308

  UHF NO Occupations:
  HONO-2 :    4 A1 2.0000000
  HONO-1 :    1 B1 2.0000000
  HONO-0 :    5 A1 2.0000000
  LUNO+0 :    6 A1 0.0000000
  LUNO+1 :    7 A1 0.0000000
  LUNO+2 :    8 A1 0.0000000
  LUNO+3 :    9 A1 0.0000000

Computation Completed

Properties will be evaluated at   0.000000,   0.000000,   0.000000 [a0]

Properties computed using the B3LYP density matrix

 Multipole Moments:

 ------------------------------------------------------------------------------------
     Multipole            Electronic (a.u.)      Nuclear  (a.u.)        Total (a.u.)
 ------------------------------------------------------------------------------------

 L = 1.  Multiply by 2.5417464519 to convert [e a0] to [Debye]
 Dipole X            :          0.0000000            0.0000000            0.0000000
 Dipole Y            :          0.0000000            0.0000000            0.0000000
 Dipole Z            :         -0.4290795            0.0006596           -0.4284199
 Magnitude           :                                                    0.4284199

 L = 2.  Multiply by 1.3450342976 to convert [e a0^2] to [Debye ang]
 Quadrupole XX       :         -8.2385360            0.0000000           -8.2385360
 Quadrupole XY       :          0.0000000            0.0000000            0.0000000
 Quadrupole XZ       :          0.0000000            0.0000000            0.0000000
 Quadrupole YY       :         -8.2385360            0.0000000           -8.2385360
 Quadrupole YZ       :          0.0000000            0.0000000            0.0000000
 Quadrupole ZZ       :        -17.0827087            2.7939879          -14.2887208
 Traceless XX        :          2.9480576           -0.9313293            2.0167283
 Traceless YY        :          2.9480576           -0.9313293            2.0167283
 Traceless ZZ        :         -5.8961152            1.8626586           -4.0334565

 ------------------------------------------------------------------------------------
  ==> Computing MBIS Charges <==

  Electron Count from Grid (Expected Number): 14.00000 (14.00000)
  Difference: -0.00000

  MBIS Charges: (a.u.)
   Center  Symbol  Z      Pop.       Charge
      1       N    7    7.280061   -0.280061
      2       C    6    6.719938   -0.719938

  MBIS Dipoles: [e a0]
   Center  Symbol  Z        X           Y           Z
      1       N    7   -0.000000   -0.000000    0.147739
      2       C    6   -0.000000   -0.000000   -0.335810

  MBIS Quadrupoles: [e a0^2]
   Center  Symbol  Z      XX        XY        XZ        YY        YZ        ZZ
      1       N    7   -2.9431   -0.0000    0.0000   -2.9431    0.0000   -4.2603
      2       C    6   -5.2954    0.0000    0.0000   -5.2954    0.0000   -9.3331

  MBIS Octupoles: [e a0^3]
   Center  Symbol  Z      XXX       XXY       XXZ       XYY       XYZ       XZZ       YYY       YYZ       YZZ       ZZZ
      1       N    7   -0.0000   -0.0000    0.4119   -0.0000   -0.0000    0.0000   -0.0000    0.4119   -0.0000    2.0551
      2       C    6   -0.0000    0.0000   -0.9380    0.0000    0.0000    0.0000    0.0000   -0.9380    0.0000   -0.2721

  MBIS Radial Moments:
   Center  Symbol  Z      [a0^2]      [a0^3]      [a0^4]
      1       N    7   10.146539   19.832517   47.530660
      2       C    6   19.923969   58.981964   205.737867

  MBIS Valence Widths: [a0]
   Center  Symbol  Z     Width
      1       N    7    0.380819
      2       C    6    0.572246

*** tstop() called on Mac.lan at Sun Aug 10 17:40:01 2025
Module time:
	user time   =       5.90 seconds =       0.10 minutes
	system time =       3.43 seconds =       0.06 minutes
	total time  =          1 seconds =       0.02 minutes
Total time:
	user time   =      22.71 seconds =       0.38 minutes
	system time =       5.86 seconds =       0.10 minutes
	total time  =          2 seconds =       0.03 minutes

    Psi4 stopped on: Sunday, 10 August 2025 05:40PM
    Psi4 wall time for execution: 0:00:02.77

*** Psi4 exiting successfully. Buy a developer a beer!
