                               Psi4 1.9.1 release

  ==> Input File <==

--------------------------------------------------------------------------
molecule {
-1 1
N           0.000000           0.000000           0.000000
C           0.000000           0.000000           0.464636
}

set {
basis              cc-pvtz
reference          uks
maxiter            500
DAMPING_PERCENTAGE 1
E_CONVERGENCE      1.0E-8
D_CONVERGENCE      1.0E-8
DIIS_MAX_VECS      400
MBIS_MAXITER       8000
guess              read
}

E, wfn = energy('b3lyp', restart_file='last_wfn', return_wfn=True)
properties('b3lyp','MBIS_CHARGES', wfn=wfn)
wfn.to_file('last_wfn')
--------------------------------------------------------------------------

    Molecular point group: c2v
  Charge       = -1
  Multiplicity = 1
  Basis Set: CC-PVTZ
    Blend: CC-PVTZ
  Basis Set: (CC-PVTZ AUX)
    Blend: CC-PVTZ-JKFIT
  @DF-UKS Final Energy:   -86.26438816532877
    Total Energy =                        -86.2643881653287679
 Dipole X            :          0.0000000            0.0000000            0.0000000
 Dipole Y            :          0.0000000            0.0000000            0.0000000
 Dipole Z            :         -0.3070955            0.0006228           -0.3064727
 Magnitude           :                                                    0.3064727
    Molecular point group: c2v

    Geometry (in Angstrom), charge = -1, multiplicity = 1:

       Center              X                  Y                   Z               Mass
    ------------   -----------------  -----------------  -----------------  -----------------
         N            0.000000000000     0.000000000000    -0.214422033297    14.003074004430
         C            0.000000000000     0.000000000000     0.250213966703    12.000000000000

  Charge       = -1
  Multiplicity = 1
  Basis Set: CC-PVTZ
    Blend: CC-PVTZ
  Basis Set: (CC-PVTZ AUX)
    Blend: CC-PVTZ-JKFIT

    Orbital Energies [Eh]
    ---------------------

    Alpha Occupied:

       1A1   -14.812617     2A1   -10.665738     1B1    -0.633870
       1B2    -0.633870     3A1    -0.546744     4A1     0.008971
       5A1     0.260346

    Alpha Virtual:

       2B1     0.363550     2B2     0.363550     6A1     0.390737
       7A1     0.513427     3B2     0.582975     3B1     0.582975
       8A1     0.788596     1A2     0.894498     9A1     0.894498
       4B2     0.945959     4B1     0.945959    10A1     1.206330
      11A1     1.455491     5B1     1.475854     5B2     1.475854
       6B2     1.566784     6B1     1.566784     2A2     1.602777
      12A1     1.602777    13A1     1.815863    14A1     2.322874
       7B1     2.541782     7B2     2.541782     8B1     2.899383
       8B2     2.899383     3A2     3.061140    15A1     3.061140
      16A1     3.210379     9B1     3.336098     9B2     3.336098
       4A2     3.497023    17A1     3.497024    18A1     3.600458
      10B2     3.714316    10B1     3.714316    19A1     4.659837
      11B2     4.715166    11B1     4.715166    20A1     4.746314
       5A2     4.746314    12B1     4.775896    12B2     4.775896
      21A1     5.284220    22A1     5.723352    13B2     6.573518
      13B1     6.573518    23A1     6.957963     6A2     6.957964
      24A1     7.745456    14B2     8.622350    14B1     8.622350
      25A1    10.862148    26A1    26.108147

    Beta Occupied:

       1A1   -14.812617     2A1   -10.665738     1B1    -0.633870
       1B2    -0.633870     3A1    -0.546744     4A1     0.008971
       5A1     0.260346

    Beta Virtual:

       2B1     0.363550     2B2     0.363550     6A1     0.390737
       7A1     0.513427     3B2     0.582975     3B1     0.582975
       8A1     0.788596     1A2     0.894498     9A1     0.894498
       4B2     0.945959     4B1     0.945959    10A1     1.206330
      11A1     1.455491     5B1     1.475854     5B2     1.475854
       6B2     1.566784     6B1     1.566784     2A2     1.602777
      12A1     1.602777    13A1     1.815863    14A1     2.322874
       7B1     2.541782     7B2     2.541782     8B1     2.899383
       8B2     2.899383     3A2     3.061140    15A1     3.061140
      16A1     3.210379     9B1     3.336098     9B2     3.336098
       4A2     3.497023    17A1     3.497024    18A1     3.600458
      10B2     3.714316    10B1     3.714316    19A1     4.659837
      11B2     4.715166    11B1     4.715166    20A1     4.746314
       5A2     4.746314    12B1     4.775896    12B2     4.775896
      21A1     5.284220    22A1     5.723352    13B2     6.573518
      13B1     6.573518    23A1     6.957963     6A2     6.957964
      24A1     7.745456    14B2     8.622350    14B1     8.622350
      25A1    10.862148    26A1    26.108147

    Final Occupation by Irrep:
             A1    A2    B1    B2
    DOCC [     5,    0,    1,    1 ]
    SOCC [     0,    0,    0,    0 ]
    NA   [     5,    0,    1,    1 ]
    NB   [     5,    0,    1,    1 ]

  @DF-UKS Final Energy:   -86.26438815924287

   => Energetics <=

    Nuclear Repulsion Energy =             47.8340956106285375
    One-Electron Energy =                -206.1909746443274400
    Two-Electron Energy =                  83.1905044611697519
    DFT Exchange-Correlation Energy =     -11.0980135867137157
    Empirical Dispersion Energy =           0.0000000000000000
    VV10 Nonlocal Energy =                  0.0000000000000000
    Total Energy =                        -86.2643881592428698

  UHF NO Occupations:
  HONO-2 :    1 B1 2.0000000
  HONO-1 :    1 B2 2.0000000
  HONO-0 :    5 A1 2.0000000
  LUNO+0 :    6 A1 0.0000000
  LUNO+1 :    7 A1 0.0000000
  LUNO+2 :    8 A1 0.0000000
  LUNO+3 :    9 A1 0.0000000

Computation Completed

Properties will be evaluated at   0.000000,   0.000000,   0.000000 [a0]

Properties computed using the B3LYP density matrix

 Multipole Moments:

 ------------------------------------------------------------------------------------
     Multipole            Electronic (a.u.)      Nuclear  (a.u.)        Total (a.u.)
 ------------------------------------------------------------------------------------

 L = 1.  Multiply by 2.5417464519 to convert [e a0] to [Debye]
 Dipole X            :          0.0000000            0.0000000            0.0000000
 Dipole Y            :          0.0000000            0.0000000            0.0000000
 Dipole Z            :         -0.3070955            0.0006228           -0.3064727
 Magnitude           :                                                    0.3064727

 L = 2.  Multiply by 1.3450342976 to convert [e a0^2] to [Debye ang]
 Quadrupole XX       :         -8.8139662            0.0000000           -8.8139662
 Quadrupole XY       :          0.0000000            0.0000000            0.0000000
 Quadrupole XZ       :          0.0000000            0.0000000            0.0000000
 Quadrupole YY       :         -8.8139662            0.0000000           -8.8139662
 Quadrupole YZ       :          0.0000000            0.0000000            0.0000000
 Quadrupole ZZ       :        -17.6893938            2.4907457          -15.1986481
 Traceless XX        :          2.9584759           -0.8302486            2.1282273
 Traceless YY        :          2.9584759           -0.8302486            2.1282273
 Traceless ZZ        :         -5.9169517            1.6604971           -4.2564546

 ------------------------------------------------------------------------------------
  ==> Computing MBIS Charges <==

  Electron Count from Grid (Expected Number): 14.00000 (14.00000)
  Difference: -0.00000

  MBIS Charges: (a.u.)
   Center  Symbol  Z      Pop.       Charge
      1       N    7    7.207368   -0.207368
      2       C    6    6.792631   -0.792631

  MBIS Dipoles: [e a0]
   Center  Symbol  Z        X           Y           Z
      1       N    7   -0.000000   -0.000000    0.069256
      2       C    6   -0.000000    0.000000   -0.084970

  MBIS Quadrupoles: [e a0^2]
   Center  Symbol  Z      XX        XY        XZ        YY        YZ        ZZ
      1       N    7   -2.7591    0.0000   -0.0000   -2.7591   -0.0000   -3.9669
      2       C    6   -6.0549    0.0000    0.0000   -6.0549    0.0000   -10.8840

  MBIS Octupoles: [e a0^3]
   Center  Symbol  Z      XXX       XXY       XXZ       XYY       XYZ       XZZ       YYY       YYZ       YZZ       ZZZ
      1       N    7   -0.0000   -0.0000    0.3834   -0.0000    0.0000   -0.0000    0.0000    0.3834    0.0000    1.9303
      2       C    6   -0.0000    0.0000   -0.2903    0.0000    0.0000    0.0000    0.0000   -0.2903    0.0000    3.2722

  MBIS Radial Moments:
   Center  Symbol  Z      [a0^2]      [a0^3]      [a0^4]
      1       N    7    9.485057   18.037141   42.276844
      2       C    6   22.993786   72.395399   264.819467

  MBIS Valence Widths: [a0]
   Center  Symbol  Z     Width
      1       N    7    0.369411
      2       C    6    0.612124

*** tstop() called on Mac.lan at Sun Aug 10 17:40:04 2025
Module time:
	user time   =       3.49 seconds =       0.06 minutes
	system time =       3.70 seconds =       0.06 minutes
	total time  =          1 seconds =       0.02 minutes
Total time:
	user time   =      17.41 seconds =       0.29 minutes
	system time =       6.13 seconds =       0.10 minutes
	total time  =          2 seconds =       0.03 minutes

    Psi4 stopped on: Sunday, 10 August 2025 05:40PM
    Psi4 wall time for execution: 0:00:02.30

*** Psi4 exiting successfully. Buy a developer a beer!
