                               Psi4 1.9.1 release

  ==> Input File <==

--------------------------------------------------------------------------
molecule {
-1 2
O           0.000000           0.000000           0.000000
O           0.000000           0.000000           0.790721
}

set {
basis              cc-pvtz
reference          uks
maxiter            500
DAMPING_PERCENTAGE 1
E_CONVERGENCE      1.0E-8
D_CONVERGENCE      1.0E-8
DIIS_MAX_VECS      400
MBIS_MAXITER       8000
guess              read
}

E, wfn = energy('b3lyp', restart_file='last_wfn', return_wfn=True)
properties('b3lyp','MBIS_CHARGES', wfn=wfn)
wfn.to_file('last_wfn')
--------------------------------------------------------------------------

    Molecular point group: d2h
  Charge       = -1
  Multiplicity = 2
  Basis Set: CC-PVTZ
    Blend: CC-PVTZ
  Basis Set: (CC-PVTZ AUX)
    Blend: CC-PVTZ-JKFIT
  @DF-UKS Final Energy:  -149.36588485750104
    Total Energy =                       -149.3658848575010438
 Dipole X            :          0.0000000            0.0000000            0.0000000
 Dipole Y            :          0.0000000            0.0000000            0.0000000
 Dipole Z            :          0.0000000            0.0000000            0.0000000
 Magnitude           :                                                    0.0000000
    Molecular point group: d2h

    Geometry (in Angstrom), charge = -1, multiplicity = 2:

       Center              X                  Y                   Z               Mass
    ------------   -----------------  -----------------  -----------------  -----------------
         O            0.000000000000     0.000000000000    -0.395360500000    15.994914619570
         O            0.000000000000     0.000000000000     0.395360500000    15.994914619570

  Charge       = -1
  Multiplicity = 2
  Basis Set: CC-PVTZ
    Blend: CC-PVTZ
  Basis Set: (CC-PVTZ AUX)
    Blend: CC-PVTZ-JKFIT

    Orbital Energies [Eh]
    ---------------------

    Alpha Occupied:

       1Ag   -18.806541     1B1u  -18.793153     2Ag    -1.323580
       1B2u   -0.404545     1B3u   -0.366958     2B1u   -0.286271
       3Ag    -0.224218     1B3g    0.317703     1B2g    0.354030

    Alpha Virtual:

       3B1u    0.628430     2B2u    0.736565     2B3u    0.757095
       4Ag     0.789134     2B3g    0.981037     2B2g    1.004676
       5Ag     1.029209     4B1u    1.469680     1B1g    1.506806
       6Ag     1.507176     5B1u    1.811795     3B2u    2.014975
       3B3u    2.045057     1Au     2.190273     6B1u    2.190815
       7Ag     2.424848     3B3g    2.616511     3B2g    2.641598
       7B1u    3.488430     4B2u    3.708938     4B3u    3.741050
       8Ag     4.409610     4B3g    4.496567     4B2g    4.530956
       8B1u    4.841228     5B2u    4.961180     5B3u    4.961189
       2B1g    5.057471     9Ag     5.057947     6B2u    5.527466
       6B3u    5.557123     5B3g    5.940704     5B2g    5.940721
      10Ag     6.013843     6B3g    6.163322     6B2g    6.191832
      11Ag     6.439602     3B1g    6.439724     9B1u    6.515817
       2Au     6.516121    12Ag     6.664119    10B1u    7.095652
       7B2u    7.441545     7B3u    7.472441     3Au     7.509876
      11B1u    7.510307    12B1u    9.029818     7B3g   10.008993
       7B2g   10.040564    13Ag    10.954003    13B1u   30.936572

    Beta Occupied:

       1Ag   -18.795401     1B1u  -18.781855     2Ag    -1.309278
       1B3u   -0.357311     1B2u   -0.340614     2B1u   -0.247889
       3Ag    -0.199544     1B2g    0.366831

    Beta Virtual:

       1B3g    0.468415     3B1u    0.636429     2B2u    0.759929
       2B3u    0.760946     4Ag     0.795211     2B2g    1.013099
       2B3g    1.035887     5Ag     1.042660     4B1u    1.489066
       1B1g    1.524495     6Ag     1.525522     5B1u    1.833077
       3B3u    2.049105     3B2u    2.053228     1Au     2.223174
       6B1u    2.224841     7Ag     2.433068     3B2g    2.646914
       3B3g    2.654086     7B1u    3.503399     4B3u    3.749067
       4B2u    3.752823     8Ag     4.421601     4B2g    4.540815
       4B3g    4.548259     8B1u    4.865500     5B3u    4.985011
       5B2u    4.985121     2B1g    5.071868     9Ag     5.072767
       6B3u    5.561775     6B2u    5.562791     5B2g    5.974211
       5B3g    5.974373    10Ag     6.027733     6B2g    6.195915
       6B3g    6.200534     3B1g    6.479213    11Ag     6.481310
       2Au     6.556445     9B1u    6.558694    12Ag     6.678992
      10B1u    7.111960     7B2u    7.475506     7B3u    7.476305
       3Au     7.536023    11B1u    7.537304    12B1u    9.043168
       7B2g   10.046471     7B3g   10.048915    13Ag    10.973272
      13B1u   30.951133

    Final Occupation by Irrep:
             Ag   B1g   B2g   B3g    Au   B1u   B2u   B3u
    DOCC [     3,    0,    1,    0,    0,    2,    1,    1 ]
    SOCC [     0,    0,    0,    1,    0,    0,    0,    0 ]
    NA   [     3,    0,    1,    1,    0,    2,    1,    1 ]
    NB   [     3,    0,    1,    0,    0,    2,    1,    1 ]

  @DF-UKS Final Energy:  -149.36588485742806

   => Energetics <=

    Nuclear Repulsion Energy =             42.8309624796609754
    One-Electron Energy =                -294.7403804226879060
    Two-Electron Energy =                 117.1327940267066907
    DFT Exchange-Correlation Energy =     -14.5892609411078187
    Empirical Dispersion Energy =           0.0000000000000000
    VV10 Nonlocal Energy =                  0.0000000000000000
    Total Energy =                       -149.3658848574280853

  UHF NO Occupations:
  HONO-2 :    2B1u 1.9998253
  HONO-1 :    1B2u 1.9997934
  HONO-0 :    1B3g 1.0000000
  LUNO+0 :    2B2u 0.0002066
  LUNO+1 :    3B1u 0.0001747
  LUNO+2 :    4 Ag 0.0000971
  LUNO+3 :    2B2g 0.0000477

Computation Completed

Properties will be evaluated at   0.000000,   0.000000,   0.000000 [a0]

Properties computed using the B3LYP density matrix

 Multipole Moments:

 ------------------------------------------------------------------------------------
     Multipole            Electronic (a.u.)      Nuclear  (a.u.)        Total (a.u.)
 ------------------------------------------------------------------------------------

 L = 1.  Multiply by 2.5417464519 to convert [e a0] to [Debye]
 Dipole X            :          0.0000000            0.0000000            0.0000000
 Dipole Y            :          0.0000000            0.0000000            0.0000000
 Dipole Z            :          0.0000000            0.0000000            0.0000000
 Magnitude           :                                                    0.0000000

 L = 2.  Multiply by 1.3450342976 to convert [e a0^2] to [Debye ang]
 Quadrupole XX       :         -9.2733414            0.0000000           -9.2733414
 Quadrupole XY       :          0.0000000            0.0000000            0.0000000
 Quadrupole XZ       :          0.0000000            0.0000000            0.0000000
 Quadrupole YY       :         -8.1277592            0.0000000           -8.1277592
 Quadrupole YZ       :          0.0000000            0.0000000            0.0000000
 Quadrupole ZZ       :        -20.4279104            8.9310860          -11.4968244
 Traceless XX        :          3.3363289           -2.9770287            0.3593003
 Traceless YY        :          4.4819111           -2.9770287            1.5048825
 Traceless ZZ        :         -7.8182401            5.9540573           -1.8641827

 ------------------------------------------------------------------------------------
  ==> Computing MBIS Charges <==

  Electron Count from Grid (Expected Number): 17.00000 (17.00000)
  Difference: -0.00000

  MBIS Charges: (a.u.)
   Center  Symbol  Z      Pop.       Charge
      1       O    8    8.500000   -0.500000
      2       O    8    8.500000   -0.500000

  MBIS Dipoles: [e a0]
   Center  Symbol  Z        X           Y           Z
      1       O    8    0.000000   -0.000000    0.402808
      2       O    8   -0.000000    0.000000   -0.402808

  MBIS Quadrupoles: [e a0^2]
   Center  Symbol  Z      XX        XY        XZ        YY        YZ        ZZ
      1       O    8   -4.6367   -0.0000    0.0000   -4.0639   -0.0000   -4.8674
      2       O    8   -4.6367    0.0000    0.0000   -4.0639    0.0000   -4.8674

  MBIS Octupoles: [e a0^3]
   Center  Symbol  Z      XXX       XXY       XXZ       XYY       XYZ       XZZ       YYY       YYZ       YZZ       ZZZ
      1       O    8   -0.0000   -0.0000    1.0001   -0.0000   -0.0000   -0.0000    0.0000    0.7014    0.0000    0.4416
      2       O    8   -0.0000   -0.0000   -1.0001   -0.0000    0.0000   -0.0000    0.0000   -0.7014    0.0000   -0.4416

  MBIS Radial Moments:
   Center  Symbol  Z      [a0^2]      [a0^3]      [a0^4]
      1       O    8   13.567972   27.984277   69.572368
      2       O    8   13.567972   27.984277   69.572368

  MBIS Valence Widths: [a0]
   Center  Symbol  Z     Width
      1       O    8    0.403809
      2       O    8    0.403809

*** tstop() called on Mac.lan at Sun Aug 10 17:27:38 2025
Module time:
	user time   =       5.21 seconds =       0.09 minutes
	system time =       1.86 seconds =       0.03 minutes
	total time  =          0 seconds =       0.00 minutes
Total time:
	user time   =      19.63 seconds =       0.33 minutes
	system time =       4.31 seconds =       0.07 minutes
	total time  =          2 seconds =       0.03 minutes

    Psi4 stopped on: Sunday, 10 August 2025 05:27PM
    Psi4 wall time for execution: 0:00:02.32

*** Psi4 exiting successfully. Buy a developer a beer!
