                               Psi4 1.9.1 release

  ==> Input File <==

--------------------------------------------------------------------------
molecule {
-1 2
O           0.000000           0.000000           0.000000
C           0.000000           0.000000           0.657431
}

set {
basis              cc-pvtz
reference          uks
maxiter            500
DAMPING_PERCENTAGE 1
E_CONVERGENCE      1.0E-8
D_CONVERGENCE      1.0E-8
DIIS_MAX_VECS      400
MBIS_MAXITER       8000
guess              read
}

E, wfn = energy('b3lyp', restart_file='last_wfn', return_wfn=True)
properties('b3lyp','MBIS_CHARGES', wfn=wfn)
wfn.to_file('last_wfn')
--------------------------------------------------------------------------

    Molecular point group: c2v
  Charge       = -1
  Multiplicity = 2
  Basis Set: CC-PVTZ
    Blend: CC-PVTZ
  Basis Set: (CC-PVTZ AUX)
    Blend: CC-PVTZ-JKFIT
  @DF-UKS Final Energy:  -111.33077044302992
    Total Energy =                       -111.3307704430299196
 Dipole X            :          0.0000000            0.0000000            0.0000000
 Dipole Y            :          0.0000000            0.0000000            0.0000000
 Dipole Z            :         -1.7503385           -0.0013541           -1.7516926
 Magnitude           :                                                    1.7516926
    Molecular point group: c2v

    Geometry (in Angstrom), charge = -1, multiplicity = 2:

       Center              X                  Y                   Z               Mass
    ------------   -----------------  -----------------  -----------------  -----------------
         O            0.000000000000     0.000000000000    -0.281807324909    15.994914619570
         C            0.000000000000     0.000000000000     0.375623675091    12.000000000000

  Charge       = -1
  Multiplicity = 2
  Basis Set: CC-PVTZ
    Blend: CC-PVTZ
  Basis Set: (CC-PVTZ AUX)
    Blend: CC-PVTZ-JKFIT

    Orbital Energies [Eh]
    ---------------------

    Alpha Occupied:

       1A1   -18.927838     2A1    -9.962522     3A1    -0.987009
       1B2    -0.462927     1B1    -0.462187     4A1    -0.280177
       5A1    -0.038157     2B1     0.308112

    Alpha Virtual:

       2B2     0.369267     6A1     0.384377     7A1     0.533434
       3B2     0.594148     3B1     0.602587     8A1     0.790600
       4B1     0.874938     4B2     0.875723     1A2     0.903329
       9A1     0.905743    10A1     1.147753     5B2     1.388945
       5B1     1.390909    11A1     1.634413     6B2     1.839549
       6B1     1.846460     2A2     1.918402    12A1     1.919695
      13A1     2.044087    14A1     2.634530     7B2     2.671812
       7B1     2.675611     8B1     2.928493     8B2     2.928550
      15A1     3.128903     3A2     3.154905    16A1     3.155952
       9B2     3.371805     9B1     3.377338    17A1     3.535958
       4A2     3.537379    18A1     3.551539    10B2     4.372848
      10B1     4.375627    11B2     4.622087    11B1     4.626408
      19A1     4.859098    12B1     5.602457    12B2     5.602466
      20A1     6.226325     5A2     6.467370    21A1     6.467757
       6A2     6.969214    22A1     6.969365    13B2     6.973896
      13B1     6.977069    23A1     7.073437    24A1     8.268727
      14B2     8.356535    14B1     8.357740    25A1    10.579008
      26A1    18.695735

    Beta Occupied:

       1A1   -18.923982     2A1    -9.963664     3A1    -0.981849
       1B2    -0.461386     1B1    -0.448488     4A1    -0.276410
       5A1    -0.029081

    Beta Virtual:

       2B2     0.382304     6A1     0.395561     2B1     0.407959
       7A1     0.550269     3B2     0.591390     3B1     0.603661
       8A1     0.797899     4B2     0.877728     4B1     0.893151
       1A2     0.921476     9A1     0.922226    10A1     1.153820
       5B2     1.390234     5B1     1.409950    11A1     1.636960
       6B2     1.839139     6B1     1.854576    12A1     1.929227
       2A2     1.929269    13A1     2.048384    14A1     2.639345
       7B2     2.671524     7B1     2.681141     8B2     2.933338
       8B1     2.933351    15A1     3.128338     3A2     3.158845
      16A1     3.160229     9B2     3.369268     9B1     3.383621
      17A1     3.536073     4A2     3.540038    18A1     3.553904
      10B2     4.374872    10B1     4.389071    11B2     4.621324
      11B1     4.632963    19A1     4.863081    12B2     5.608139
      12B1     5.608141    20A1     6.228014     5A2     6.478338
      21A1     6.478424    22A1     6.974041     6A2     6.974174
      13B2     6.974571    13B1     6.983755    23A1     7.075984
      24A1     8.270244    14B2     8.357514    14B1     8.366244
      25A1    10.583157    26A1    18.699923

    Final Occupation by Irrep:
             A1    A2    B1    B2
    DOCC [     5,    0,    1,    1 ]
    SOCC [     0,    0,    1,    0 ]
    NA   [     5,    0,    2,    1 ]
    NB   [     5,    0,    1,    1 ]

  @DF-UKS Final Energy:  -111.33077044300003

   => Energetics <=

    Nuclear Repulsion Energy =             38.6360030363034355
    One-Electron Energy =                -229.3182439422933498
    Two-Electron Energy =                  91.5058551767134389
    DFT Exchange-Correlation Energy =     -12.1543847137235517
    Empirical Dispersion Energy =           0.0000000000000000
    VV10 Nonlocal Energy =                  0.0000000000000000
    Total Energy =                       -111.3307704430000342

  UHF NO Occupations:
  HONO-2 :    1 B1 1.9999564
  HONO-1 :    5 A1 1.9992943
  HONO-0 :    2 B1 1.0000000
  LUNO+0 :    6 A1 0.0007057
  LUNO+1 :    3 B1 0.0000436
  LUNO+2 :    7 A1 0.0000105
  LUNO+3 :    2 B2 0.0000034

Computation Completed

Properties will be evaluated at   0.000000,   0.000000,   0.000000 [a0]

Properties computed using the B3LYP density matrix

 Multipole Moments:

 ------------------------------------------------------------------------------------
     Multipole            Electronic (a.u.)      Nuclear  (a.u.)        Total (a.u.)
 ------------------------------------------------------------------------------------

 L = 1.  Multiply by 2.5417464519 to convert [e a0] to [Debye]
 Dipole X            :          0.0000000            0.0000000            0.0000000
 Dipole Y            :          0.0000000            0.0000000            0.0000000
 Dipole Z            :         -1.7503385           -0.0013541           -1.7516926
 Magnitude           :                                                    1.7516926

 L = 2.  Multiply by 1.3450342976 to convert [e a0^2] to [Debye ang]
 Quadrupole XX       :        -14.3186495            0.0000000          -14.3186495
 Quadrupole XY       :          0.0000000            0.0000000            0.0000000
 Quadrupole XZ       :          0.0000000            0.0000000            0.0000000
 Quadrupole YY       :         -9.2971283            0.0000000           -9.2971283
 Quadrupole YZ       :          0.0000000            0.0000000            0.0000000
 Quadrupole ZZ       :        -17.7436137            5.2918960          -12.4517177
 Traceless XX        :         -0.5321857           -1.7639653           -2.2961510
 Traceless YY        :          4.4893355           -1.7639653            2.7253702
 Traceless ZZ        :         -3.9571498            3.5279307           -0.4292192

 ------------------------------------------------------------------------------------
  ==> Computing MBIS Charges <==

  Electron Count from Grid (Expected Number): 15.00000 (15.00000)
  Difference: -0.00000

  MBIS Charges: (a.u.)
   Center  Symbol  Z      Pop.       Charge
      1       O    8    7.640880    0.359120
      2       C    6    7.359119   -1.359119

  MBIS Dipoles: [e a0]
   Center  Symbol  Z        X           Y           Z
      1       O    8    0.000000   -0.000000   -0.112969
      2       C    6    0.000000    0.000000   -0.482741

  MBIS Quadrupoles: [e a0^2]
   Center  Symbol  Z      XX        XY        XZ        YY        YZ        ZZ
      1       O    8   -2.3718    0.0000    0.0000   -2.2730   -0.0000   -2.7560
      2       C    6   -11.9469   -0.0000    0.0000   -7.0241    0.0000   -8.5478

  MBIS Octupoles: [e a0^3]
   Center  Symbol  Z      XXX       XXY       XXZ       XYY       XYZ       XZZ       YYY       YYZ       YZZ       ZZZ
      1       O    8   -0.0000    0.0000   -0.0559   -0.0000    0.0000    0.0000    0.0000    0.0003    0.0000    0.1804
      2       C    6    0.0000   -0.0000   -3.8184    0.0000    0.0000    0.0000   -0.0000   -1.3807    0.0000   -1.9832

  MBIS Radial Moments:
   Center  Symbol  Z      [a0^2]      [a0^3]      [a0^4]
      1       O    8    7.400746   11.311978   20.911054
      2       C    6   27.518796   87.752798   323.848048

  MBIS Valence Widths: [a0]
   Center  Symbol  Z     Width
      1       O    8    0.318575
      2       C    6    0.642259

*** tstop() called on Mac.lan at Sun Aug 10 17:42:26 2025
Module time:
	user time   =       4.88 seconds =       0.08 minutes
	system time =       2.03 seconds =       0.03 minutes
	total time  =          0 seconds =       0.00 minutes
Total time:
	user time   =      19.32 seconds =       0.32 minutes
	system time =       4.39 seconds =       0.07 minutes
	total time  =          2 seconds =       0.03 minutes

    Psi4 stopped on: Sunday, 10 August 2025 05:42PM
    Psi4 wall time for execution: 0:00:02.31

*** Psi4 exiting successfully. Buy a developer a beer!
