                               Psi4 1.9.1 release

  ==> Input File <==

--------------------------------------------------------------------------
molecule {
-1 2
N           0.000000           0.000000           0.000000
N           0.000000           0.000000           1.252791
}

set {
basis              cc-pvtz
reference          uks
maxiter            500
DAMPING_PERCENTAGE 1
E_CONVERGENCE      1.0E-8
D_CONVERGENCE      1.0E-8
DIIS_MAX_VECS      400
MBIS_MAXITER       8000
guess              read
}

E, wfn = energy('b3lyp', restart_file='last_wfn', return_wfn=True)
properties('b3lyp','MBIS_CHARGES', wfn=wfn)
wfn.to_file('last_wfn')
--------------------------------------------------------------------------

    Molecular point group: d2h
  Charge       = -1
  Multiplicity = 2
  Basis Set: CC-PVTZ
    Blend: CC-PVTZ
  Basis Set: (CC-PVTZ AUX)
    Blend: CC-PVTZ-JKFIT
  @DF-UKS Final Energy:  -109.47746137898497
    Total Energy =                       -109.4774613789849695
 Dipole X            :          0.0000000            0.0000000            0.0000000
 Dipole Y            :          0.0000000            0.0000000            0.0000000
 Dipole Z            :          0.0000000            0.0000000            0.0000000
 Magnitude           :                                                    0.0000000
    Molecular point group: d2h

    Geometry (in Angstrom), charge = -1, multiplicity = 2:

       Center              X                  Y                   Z               Mass
    ------------   -----------------  -----------------  -----------------  -----------------
         N            0.000000000000     0.000000000000    -0.626395500000    14.003074004430
         N            0.000000000000     0.000000000000     0.626395500000    14.003074004430

  Charge       = -1
  Multiplicity = 2
  Basis Set: CC-PVTZ
    Blend: CC-PVTZ
  Basis Set: (CC-PVTZ AUX)
    Blend: CC-PVTZ-JKFIT

    Orbital Energies [Eh]
    ---------------------

    Alpha Occupied:

       1Ag   -14.034713     1B1u  -14.034233     2Ag    -0.658610
       2B1u   -0.241661     1B3u   -0.086390     3Ag    -0.063287
       1B2u   -0.062124     1B2g    0.168995

    Alpha Virtual:

       1B3g    0.263624     3B1u    0.525810     2B3u    0.701472
       2B2u    0.704856     4Ag     0.708907     2B2g    0.793654
       5Ag     0.807208     2B3g    0.807785     4B1u    0.858641
       5B1u    1.138803     1B1g    1.188858     6Ag     1.189986
       3B3u    1.352789     3B2u    1.352868     1Au     1.540038
       6B1u    1.541578     3B2g    1.968810     3B3g    1.971101
       7Ag     1.986606     7B1u    2.032356     4B3u    3.081025
       4B2u    3.093735     8Ag     3.231620     4B2g    3.325573
       4B3g    3.335674     2B1g    3.818196     9Ag     3.819249
       8B1u    3.883431     5B2u    3.891546     5B3u    3.895457
       6B3u    4.045079     6B2u    4.045320    10Ag     4.147020
       5B2g    4.339977     5B3g    4.340228     9B1u    4.671809
       3B1g    4.705197    11Ag     4.708258     2Au     4.777166
      10B1u    4.780176     6B2g    4.942709     6B3g    4.950399
       3Au     5.018192    11B1u    5.019810     7B3u    5.157915
       7B2u    5.161507    12B1u    5.623445    12Ag     5.690662
      13Ag     6.061210     7B3g    6.182509     7B2g    6.184253
      13B1u   11.804734

    Beta Occupied:

       1Ag   -14.023918     1B1u  -14.023379     2Ag    -0.637855
       2B1u   -0.206401     1B2u   -0.053160     3Ag    -0.047414
       1B3u   -0.020495

    Beta Virtual:

       1B3g    0.275469     1B2g    0.308787     3B1u    0.534678
       2B2u    0.709161     4Ag     0.714574     2B3u    0.729233
       2B3g    0.814527     5Ag     0.816057     2B2g    0.835700
       4B1u    0.873600     5B1u    1.154533     1B1g    1.206597
       6Ag     1.206808     3B2u    1.354604     3B3u    1.379154
       1Au     1.568586     6B1u    1.568650     3B3g    1.974379
       3B2g    1.996900     7Ag     1.998142     7B1u    2.041924
       4B2u    3.101945     4B3u    3.132227     8Ag     3.240207
       4B3g    3.344734     4B2g    3.376949     2B1g    3.834393
       9Ag     3.834521     5B2u    3.894104     8B1u    3.899623
       5B3u    3.919299     6B2u    4.075150     6B3u    4.075217
      10Ag     4.159343     5B3g    4.372808     5B2g    4.372828
       9B1u    4.686942     3B1g    4.750357    11Ag     4.750448
       2Au     4.818229    10B1u    4.818269     6B3g    4.954608
       6B2g    4.982961     3Au     5.044562    11B1u    5.045448
       7B2u    5.165489     7B3u    5.195268    12B1u    5.636094
      12Ag     5.713440    13Ag     6.070748     7B3g    6.185647
       7B2g    6.212606    13B1u   11.820794

    Final Occupation by Irrep:
             Ag   B1g   B2g   B3g    Au   B1u   B2u   B3u
    DOCC [     3,    0,    0,    0,    0,    2,    1,    1 ]
    SOCC [     0,    0,    1,    0,    0,    0,    0,    0 ]
    NA   [     3,    0,    1,    0,    0,    2,    1,    1 ]
    NB   [     3,    0,    0,    0,    0,    2,    1,    1 ]

  @DF-UKS Final Energy:  -109.47746137976449

   => Energetics <=

    Nuclear Repulsion Energy =             20.6975332061213706
    One-Electron Energy =                -194.2213777950727263
    Two-Electron Energy =                  75.3094395440473221
    DFT Exchange-Correlation Energy =     -11.2630563348604529
    Empirical Dispersion Energy =           0.0000000000000000
    VV10 Nonlocal Energy =                  0.0000000000000000
    Total Energy =                       -109.4774613797644918

  UHF NO Occupations:
  HONO-2 :    2B1u 1.9996466
  HONO-1 :    1B3u 1.9988788
  HONO-0 :    1B2g 1.0000000
  LUNO+0 :    2B3u 0.0011212
  LUNO+1 :    3B1u 0.0003534
  LUNO+2 :    4 Ag 0.0001781
  LUNO+3 :    2B2u 0.0000387

Computation Completed

Properties will be evaluated at   0.000000,   0.000000,   0.000000 [a0]

Properties computed using the B3LYP density matrix

 Multipole Moments:

 ------------------------------------------------------------------------------------
     Multipole            Electronic (a.u.)      Nuclear  (a.u.)        Total (a.u.)
 ------------------------------------------------------------------------------------

 L = 1.  Multiply by 2.5417464519 to convert [e a0] to [Debye]
 Dipole X            :          0.0000000            0.0000000            0.0000000
 Dipole Y            :          0.0000000            0.0000000            0.0000000
 Dipole Z            :          0.0000000            0.0000000            0.0000000
 Magnitude           :                                                    0.0000000

 L = 2.  Multiply by 1.3450342976 to convert [e a0^2] to [Debye ang]
 Quadrupole XX       :        -10.5003705            0.0000000          -10.5003705
 Quadrupole XY       :          0.0000000            0.0000000            0.0000000
 Quadrupole XZ       :          0.0000000            0.0000000            0.0000000
 Quadrupole YY       :         -9.4005728            0.0000000           -9.4005728
 Quadrupole YZ       :          0.0000000            0.0000000            0.0000000
 Quadrupole ZZ       :        -32.5960984           19.6165680          -12.9795304
 Traceless XX        :          6.9986434           -6.5388560            0.4597874
 Traceless YY        :          8.0984411           -6.5388560            1.5595851
 Traceless ZZ        :        -15.0970845           13.0777120           -2.0193725

 ------------------------------------------------------------------------------------
  ==> Computing MBIS Charges <==

  Electron Count from Grid (Expected Number): 15.00000 (15.00000)
  Difference:  0.00000

  MBIS Charges: (a.u.)
   Center  Symbol  Z      Pop.       Charge
      1       N    7    7.500000   -0.500000
      2       N    7    7.500000   -0.500000

  MBIS Dipoles: [e a0]
   Center  Symbol  Z        X           Y           Z
      1       N    7   -0.000000   -0.000000    0.204191
      2       N    7    0.000000   -0.000000   -0.204191

  MBIS Quadrupoles: [e a0^2]
   Center  Symbol  Z      XX        XY        XZ        YY        YZ        ZZ
      1       N    7   -5.2502    0.0000   -0.0000   -4.7003   -0.0000   -5.3058
      2       N    7   -5.2502    0.0000    0.0000   -4.7003    0.0000   -5.3058

  MBIS Octupoles: [e a0^3]
   Center  Symbol  Z      XXX       XXY       XXZ       XYY       XYZ       XZZ       YYY       YYZ       YZZ       ZZZ
      1       N    7   -0.0000   -0.0000    0.3784   -0.0000    0.0000    0.0000   -0.0000    0.1320   -0.0000    0.1846
      2       N    7   -0.0000   -0.0000   -0.3784   -0.0000   -0.0000    0.0000   -0.0000   -0.1320   -0.0000   -0.1846

  MBIS Radial Moments:
   Center  Symbol  Z      [a0^2]      [a0^3]      [a0^4]
      1       N    7   15.256237   34.628717   93.233020
      2       N    7   15.256237   34.628717   93.233020

  MBIS Valence Widths: [a0]
   Center  Symbol  Z     Width
      1       N    7    0.469658
      2       N    7    0.469658

*** tstop() called on Mac.lan at Sun Aug 10 17:33:38 2025
Module time:
	user time   =       4.46 seconds =       0.07 minutes
	system time =       2.20 seconds =       0.04 minutes
	total time  =          0 seconds =       0.00 minutes
Total time:
	user time   =      16.37 seconds =       0.27 minutes
	system time =       4.34 seconds =       0.07 minutes
	total time  =          2 seconds =       0.03 minutes

    Psi4 stopped on: Sunday, 10 August 2025 05:33PM
    Psi4 wall time for execution: 0:00:02.02

*** Psi4 exiting successfully. Buy a developer a beer!
