                               Psi4 1.9.1 release

  ==> Input File <==

--------------------------------------------------------------------------
molecule {
-1 2
O           0.000000           0.000000           0.000000
C           0.000000           0.000000           1.231279
}

set {
basis              cc-pvtz
reference          uks
maxiter            500
DAMPING_PERCENTAGE 1
E_CONVERGENCE      1.0E-8
D_CONVERGENCE      1.0E-8
DIIS_MAX_VECS      400
MBIS_MAXITER       8000
guess              read
}

E, wfn = energy('b3lyp', restart_file='last_wfn', return_wfn=True)
properties('b3lyp','MBIS_CHARGES', wfn=wfn)
wfn.to_file('last_wfn')
--------------------------------------------------------------------------

    Molecular point group: c2v
  Charge       = -1
  Multiplicity = 2
  Basis Set: CC-PVTZ
    Blend: CC-PVTZ
  Basis Set: (CC-PVTZ AUX)
    Blend: CC-PVTZ-JKFIT
  @DF-UKS Final Energy:  -113.28651463252432
    Total Energy =                       -113.2865146325243160
 Dipole X            :          0.0000000            0.0000000            0.0000000
 Dipole Y            :          0.0000000            0.0000000            0.0000000
 Dipole Z            :         -0.7430768           -0.0025360           -0.7456128
 Magnitude           :                                                    0.7456128
    Molecular point group: c2v

    Geometry (in Angstrom), charge = -1, multiplicity = 2:

       Center              X                  Y                   Z               Mass
    ------------   -----------------  -----------------  -----------------  -----------------
         O            0.000000000000     0.000000000000    -0.527786857034    15.994914619570
         C            0.000000000000     0.000000000000     0.703492142966    12.000000000000

  Charge       = -1
  Multiplicity = 2
  Basis Set: CC-PVTZ
    Blend: CC-PVTZ
  Basis Set: (CC-PVTZ AUX)
    Blend: CC-PVTZ-JKFIT

    Orbital Energies [Eh]
    ---------------------

    Alpha Occupied:

       1A1   -18.859001     2A1    -9.920932     3A1    -0.757112
       4A1    -0.243160     1B1    -0.123245     1B2    -0.105893
       5A1    -0.053887     2B1     0.170907

    Alpha Virtual:

       2B2     0.257122     6A1     0.405662     3B1     0.552648
       3B2     0.566705     7A1     0.575478     8A1     0.809432
       9A1     0.815458     4B1     0.891786     4B2     0.894768
       1A2     0.939738    10A1     0.942355     5B1     1.129036
       5B2     1.130899    11A1     1.399732    12A1     1.534322
       2A2     1.802591    13A1     1.803337     6B1     2.128201
       6B2     2.133873    14A1     2.290172     7B1     2.331231
       7B2     2.338383    15A1     2.637495     8B1     2.970241
       8B2     2.970863     3A2     3.101092    16A1     3.102945
       4A2     3.260118    17A1     3.264792     9B1     3.281679
       9B2     3.288306    18A1     3.459744    10B1     3.499433
      10B2     3.502582    19A1     3.585715    11B1     4.283848
      11B2     4.284748    20A1     4.458784    12B1     5.410317
      12B2     5.410360     5A2     5.694292    21A1     5.694834
      22A1     6.179942    13B2     6.306997    13B1     6.307971
       6A2     6.548329    23A1     6.549391    24A1     6.809214
      14B1     7.044624    14B2     7.045775    25A1     7.295817
      26A1    11.080296

    Beta Occupied:

       1A1   -18.851157     2A1    -9.911244     3A1    -0.741879
       4A1    -0.221218     1B2    -0.099751     1B1    -0.073852
       5A1    -0.029905

    Beta Virtual:

       2B2     0.267657     2B1     0.298081     6A1     0.409435
       3B2     0.573588     7A1     0.590717     3B1     0.597619
       8A1     0.820066     9A1     0.826689     4B2     0.897167
       4B1     0.911179     1A2     0.968103    10A1     0.968836
       5B2     1.132661     5B1     1.156895    11A1     1.407683
      12A1     1.544110     2A2     1.816845    13A1     1.816999
       6B2     2.137085     6B1     2.158863    14A1     2.304242
       7B2     2.345939     7B1     2.375688    15A1     2.647666
       8B2     3.008323     8B1     3.008414     3A2     3.123030
      16A1     3.123052     9B2     3.291012    17A1     3.308050
       4A2     3.309221     9B1     3.319561    18A1     3.473948
      10B2     3.505991    10B1     3.531350    19A1     3.599142
      11B2     4.288808    11B1     4.312581    20A1     4.469171
      12B2     5.427349    12B1     5.427352    21A1     5.706676
       5A2     5.706774    22A1     6.188890    13B2     6.309621
      13B1     6.330672    23A1     6.575756     6A2     6.575857
      24A1     6.820788    14B2     7.048405    14B1     7.068957
      25A1     7.305817    26A1    11.093732

    Final Occupation by Irrep:
             A1    A2    B1    B2
    DOCC [     5,    0,    1,    1 ]
    SOCC [     0,    0,    1,    0 ]
    NA   [     5,    0,    2,    1 ]
    NB   [     5,    0,    1,    1 ]

  @DF-UKS Final Energy:  -113.28651462800929

   => Energetics <=

    Nuclear Repulsion Energy =             20.6293667902725595
    One-Electron Energy =                -199.7843434972373871
    Two-Electron Energy =                  77.3060277306429100
    DFT Exchange-Correlation Energy =     -11.4375656516873718
    Empirical Dispersion Energy =           0.0000000000000000
    VV10 Nonlocal Energy =                  0.0000000000000000
    Total Energy =                       -113.2865146280092858

  UHF NO Occupations:
  HONO-2 :    1 B1 1.9993541
  HONO-1 :    5 A1 1.9992777
  HONO-0 :    2 B1 1.0000000
  LUNO+0 :    6 A1 0.0007223
  LUNO+1 :    3 B1 0.0006459
  LUNO+2 :    7 A1 0.0000551
  LUNO+3 :    2 B2 0.0000454

Computation Completed

Properties will be evaluated at   0.000000,   0.000000,   0.000000 [a0]

Properties computed using the B3LYP density matrix

 Multipole Moments:

 ------------------------------------------------------------------------------------
     Multipole            Electronic (a.u.)      Nuclear  (a.u.)        Total (a.u.)
 ------------------------------------------------------------------------------------

 L = 1.  Multiply by 2.5417464519 to convert [e a0] to [Debye]
 Dipole X            :          0.0000000            0.0000000            0.0000000
 Dipole Y            :          0.0000000            0.0000000            0.0000000
 Dipole Z            :         -0.7430768           -0.0025360           -0.7456129
 Magnitude           :                                                    0.7456129

 L = 2.  Multiply by 1.3450342976 to convert [e a0^2] to [Debye ang]
 Quadrupole XX       :        -11.3142419            0.0000000          -11.3142419
 Quadrupole XY       :          0.0000000            0.0000000            0.0000000
 Quadrupole XZ       :          0.0000000            0.0000000            0.0000000
 Quadrupole YY       :         -9.5895048            0.0000000           -9.5895048
 Quadrupole YZ       :          0.0000000            0.0000000            0.0000000
 Quadrupole ZZ       :        -32.2649672           18.5619625          -13.7030047
 Traceless XX        :          6.4086627           -6.1873208            0.2213419
 Traceless YY        :          8.1333999           -6.1873208            1.9460790
 Traceless ZZ        :        -14.5420626           12.3746417           -2.1674209

 ------------------------------------------------------------------------------------
  ==> Computing MBIS Charges <==

  Electron Count from Grid (Expected Number): 15.00000 (15.00000)
  Difference:  0.00000

  MBIS Charges: (a.u.)
   Center  Symbol  Z      Pop.       Charge
      1       O    8    8.360763   -0.360763
      2       C    6    6.639237   -0.639237

  MBIS Dipoles: [e a0]
   Center  Symbol  Z        X           Y           Z
      1       O    8   -0.000000   -0.000000    0.107562
      2       C    6    0.000000    0.000000   -0.363183

  MBIS Quadrupoles: [e a0^2]
   Center  Symbol  Z      XX        XY        XZ        YY        YZ        ZZ
      1       O    8   -4.1808   -0.0000    0.0000   -3.9661    0.0000   -4.2851
      2       C    6   -7.1334   -0.0000    0.0000   -5.6234    0.0000   -6.7491

  MBIS Octupoles: [e a0^3]
   Center  Symbol  Z      XXX       XXY       XXZ       XYY       XYZ       XZZ       YYY       YYZ       YZZ       ZZZ
      1       O    8   -0.0000   -0.0000    0.1385   -0.0000    0.0000   -0.0000   -0.0000    0.1750   -0.0000    0.1970
      2       C    6   -0.0000    0.0000   -1.0962    0.0000    0.0000    0.0000    0.0000   -0.3010    0.0000   -0.3153

  MBIS Radial Moments:
   Center  Symbol  Z      [a0^2]      [a0^3]      [a0^4]
      1       O    8   12.431991   23.951506   55.378308
      2       C    6   19.505957   53.885250   174.662372

  MBIS Valence Widths: [a0]
   Center  Symbol  Z     Width
      1       O    8    0.393764
      2       C    6    0.579067

*** tstop() called on Mac.lan at Sun Aug 10 17:43:04 2025
Module time:
	user time   =       4.10 seconds =       0.07 minutes
	system time =       1.66 seconds =       0.03 minutes
	total time  =          0 seconds =       0.00 minutes
Total time:
	user time   =      17.73 seconds =       0.30 minutes
	system time =       3.97 seconds =       0.07 minutes
	total time  =          2 seconds =       0.03 minutes

    Psi4 stopped on: Sunday, 10 August 2025 05:43PM
    Psi4 wall time for execution: 0:00:02.10

*** Psi4 exiting successfully. Buy a developer a beer!
