                               Psi4 1.9.1 release

  ==> Input File <==

--------------------------------------------------------------------------
molecule {
-1 2
O           0.000000           0.000000           0.000000
C           0.000000           0.000000           1.374741
}

set {
basis              cc-pvtz
reference          uks
maxiter            500
DAMPING_PERCENTAGE 1
E_CONVERGENCE      1.0E-8
D_CONVERGENCE      1.0E-8
DIIS_MAX_VECS      400
MBIS_MAXITER       8000
guess              read
}

E, wfn = energy('b3lyp', restart_file='last_wfn', return_wfn=True)
properties('b3lyp','MBIS_CHARGES', wfn=wfn)
wfn.to_file('last_wfn')
--------------------------------------------------------------------------

    Molecular point group: c2v
  Charge       = -1
  Multiplicity = 2
  Basis Set: CC-PVTZ
    Blend: CC-PVTZ
  Basis Set: (CC-PVTZ AUX)
    Blend: CC-PVTZ-JKFIT
  @DF-UKS Final Energy:  -113.26459470359764
    Total Energy =                       -113.2645947035976377
 Dipole X            :          0.0000000            0.0000000            0.0000000
 Dipole Y            :          0.0000000            0.0000000            0.0000000
 Dipole Z            :         -0.5264103           -0.0028315           -0.5292418
 Magnitude           :                                                    0.5292418
    Molecular point group: c2v

    Geometry (in Angstrom), charge = -1, multiplicity = 2:

       Center              X                  Y                   Z               Mass
    ------------   -----------------  -----------------  -----------------  -----------------
         O            0.000000000000     0.000000000000    -0.589281740065    15.994914619570
         C            0.000000000000     0.000000000000     0.785459259935    12.000000000000

  Charge       = -1
  Multiplicity = 2
  Basis Set: CC-PVTZ
    Blend: CC-PVTZ
  Basis Set: (CC-PVTZ AUX)
    Blend: CC-PVTZ-JKFIT

    Orbital Energies [Eh]
    ---------------------

    Alpha Occupied:

       1A1   -18.858137     2A1    -9.952315     3A1    -0.693978
       4A1    -0.245093     1B1    -0.089599     1B2    -0.070306
       5A1    -0.055610     2B1     0.132541

    Alpha Virtual:

       2B2     0.221787     6A1     0.397447     3B1     0.550288
       3B2     0.565152     7A1     0.582477     8A1     0.671430
       9A1     0.816583     4B1     0.897898     4B2     0.900740
       1A2     0.937504    10A1     0.940216     5B1     1.085723
       5B2     1.086954    11A1     1.366972    12A1     1.487898
       2A2     1.789436    13A1     1.790070     6B1     2.046651
       6B2     2.051186     7B1     2.321376     7B2     2.332100
      14A1     2.335673    15A1     2.510811     8B1     2.962275
       8B2     2.963072     3A2     3.040601    16A1     3.042791
       9B1     3.221529     9B2     3.228724     4A2     3.241998
      17A1     3.247582    18A1     3.377523    10B1     3.462877
      10B2     3.467316    19A1     3.521659    11B1     4.145838
      11B2     4.148315    20A1     4.166842    12B1     5.418523
      12B2     5.418561     5A2     5.574221    21A1     5.574638
      22A1     5.672331    13B2     6.009887    13B1     6.012053
       6A2     6.532500    23A1     6.533538    24A1     6.547510
      14B1     6.968456    14B2     6.970046    25A1     7.506195
      26A1     9.512223

    Beta Occupied:

       1A1   -18.851138     2A1    -9.941162     3A1    -0.678683
       4A1    -0.217796     1B2    -0.065054     1B1    -0.040495
       5A1    -0.035601

    Beta Virtual:

       2B2     0.233151     2B1     0.265624     6A1     0.402982
       3B2     0.572811     3B1     0.597697     7A1     0.598767
       8A1     0.685418     9A1     0.822334     4B2     0.902394
       4B1     0.916140     1A2     0.967999    10A1     0.968404
       5B2     1.088672     5B1     1.112161    11A1     1.377589
      12A1     1.493802     2A2     1.801784    13A1     1.801924
       6B2     2.053746     6B1     2.074865     7B2     2.341080
      14A1     2.348303     7B1     2.373404    15A1     2.522535
       8B2     3.004679     8B1     3.004791    16A1     3.065213
       3A2     3.065394     9B2     3.232725     9B1     3.261389
      17A1     3.296169     4A2     3.298091    18A1     3.394143
      10B2     3.470129    10B1     3.497896    19A1     3.537497
      11B2     4.151902    11B1     4.174853    20A1     4.176398
      12B2     5.433930    12B1     5.433933    21A1     5.584127
       5A2     5.585002    22A1     5.683278    13B2     6.011456
      13B1     6.030721    23A1     6.552052     6A2     6.557405
      24A1     6.561661    14B2     6.971896    14B1     6.991804
      25A1     7.516491    26A1     9.524677

    Final Occupation by Irrep:
             A1    A2    B1    B2
    DOCC [     5,    0,    1,    1 ]
    SOCC [     0,    0,    1,    0 ]
    NA   [     5,    0,    2,    1 ]
    NB   [     5,    0,    1,    1 ]

  @DF-UKS Final Energy:  -113.26459469548746

   => Energetics <=

    Nuclear Repulsion Energy =             18.4765756692787946
    One-Electron Energy =                -195.6401419930055567
    Two-Electron Energy =                  75.2679902551936379
    DFT Exchange-Correlation Energy =     -11.3690186269543290
    Empirical Dispersion Energy =           0.0000000000000000
    VV10 Nonlocal Energy =                  0.0000000000000000
    Total Energy =                       -113.2645946954874603

  UHF NO Occupations:
  HONO-2 :    1 B1 1.9991590
  HONO-1 :    5 A1 1.9991240
  HONO-0 :    2 B1 1.0000000
  LUNO+0 :    6 A1 0.0008760
  LUNO+1 :    3 B1 0.0008410
  LUNO+2 :    2 B2 0.0001395
  LUNO+3 :    7 A1 0.0000503

Computation Completed

Properties will be evaluated at   0.000000,   0.000000,   0.000000 [a0]

Properties computed using the B3LYP density matrix

 Multipole Moments:

 ------------------------------------------------------------------------------------
     Multipole            Electronic (a.u.)      Nuclear  (a.u.)        Total (a.u.)
 ------------------------------------------------------------------------------------

 L = 1.  Multiply by 2.5417464519 to convert [e a0] to [Debye]
 Dipole X            :          0.0000000            0.0000000            0.0000000
 Dipole Y            :          0.0000000            0.0000000            0.0000000
 Dipole Z            :         -0.5264105           -0.0028315           -0.5292420
 Magnitude           :                                                    0.5292420

 L = 2.  Multiply by 1.3450342976 to convert [e a0^2] to [Debye ang]
 Quadrupole XX       :        -11.2387218            0.0000000          -11.2387218
 Quadrupole XY       :          0.0000000            0.0000000            0.0000000
 Quadrupole XZ       :          0.0000000            0.0000000            0.0000000
 Quadrupole YY       :         -9.7116381            0.0000000           -9.7116381
 Quadrupole YZ       :          0.0000000            0.0000000            0.0000000
 Quadrupole ZZ       :        -37.0198478           23.1394332          -13.8804145
 Traceless XX        :          8.0846808           -7.7131444            0.3715364
 Traceless YY        :          9.6117645           -7.7131444            1.8986201
 Traceless ZZ        :        -17.6964452           15.4262888           -2.2701564

 ------------------------------------------------------------------------------------
  ==> Computing MBIS Charges <==

  Electron Count from Grid (Expected Number): 15.00000 (15.00000)
  Difference: -0.00000

  MBIS Charges: (a.u.)
   Center  Symbol  Z      Pop.       Charge
      1       O    8    8.463395   -0.463395
      2       C    6    6.536604   -0.536604

  MBIS Dipoles: [e a0]
   Center  Symbol  Z        X           Y           Z
      1       O    8    0.000000   -0.000000    0.092342
      2       C    6   -0.000000    0.000000   -0.341130

  MBIS Quadrupoles: [e a0^2]
   Center  Symbol  Z      XX        XY        XZ        YY        YZ        ZZ
      1       O    8   -4.4500    0.0000   -0.0000   -4.2410   -0.0000   -4.4349
      2       C    6   -6.7887   -0.0000    0.0000   -5.4706    0.0000   -6.4703

  MBIS Octupoles: [e a0^3]
   Center  Symbol  Z      XXX       XXY       XXZ       XYY       XYZ       XZZ       YYY       YYZ       YZZ       ZZZ
      1       O    8   -0.0000   -0.0000    0.1147   -0.0000    0.0000   -0.0000   -0.0000    0.1378   -0.0000    0.1001
      2       C    6   -0.0000    0.0000   -0.8030   -0.0000    0.0000   -0.0000    0.0000   -0.1837    0.0000   -0.2052

  MBIS Radial Moments:
   Center  Symbol  Z      [a0^2]      [a0^3]      [a0^4]
      1       O    8   13.125922   25.817253   60.786358
      2       C    6   18.729648   51.083104   163.657452

  MBIS Valence Widths: [a0]
   Center  Symbol  Z     Width
      1       O    8    0.401861
      2       C    6    0.573835

*** tstop() called on Mac.lan at Sun Aug 10 17:43:18 2025
Module time:
	user time   =       3.56 seconds =       0.06 minutes
	system time =       2.22 seconds =       0.04 minutes
	total time  =          1 seconds =       0.02 minutes
Total time:
	user time   =      18.68 seconds =       0.31 minutes
	system time =       4.51 seconds =       0.08 minutes
	total time  =          2 seconds =       0.03 minutes

    Psi4 stopped on: Sunday, 10 August 2025 05:43PM
    Psi4 wall time for execution: 0:00:02.24

*** Psi4 exiting successfully. Buy a developer a beer!
