                               Psi4 1.9.1 release

  ==> Input File <==

--------------------------------------------------------------------------
molecule {
-1 2
C           0.000000           0.000000           0.000000
C           0.000000           0.000000           1.412939
}

set {
basis              cc-pvtz
reference          uks
maxiter            500
DAMPING_PERCENTAGE 1
E_CONVERGENCE      1.0E-8
D_CONVERGENCE      1.0E-8
DIIS_MAX_VECS      400
MBIS_MAXITER       8000
guess              read
}

E, wfn = energy('b3lyp', restart_file='last_wfn', return_wfn=True)
properties('b3lyp','MBIS_CHARGES', wfn=wfn)
wfn.to_file('last_wfn')
--------------------------------------------------------------------------

    Molecular point group: d2h
  Charge       = -1
  Multiplicity = 2
  Basis Set: CC-PVTZ
    Blend: CC-PVTZ
  Basis Set: (CC-PVTZ AUX)
    Blend: CC-PVTZ-JKFIT
  @DF-UKS Final Energy:   -76.03356986194625
    Total Energy =                        -76.0335698619462477
 Dipole X            :          0.0000000            0.0000000            0.0000000
 Dipole Y            :          0.0000000            0.0000000            0.0000000
 Dipole Z            :          0.0000000            0.0000000            0.0000000
 Magnitude           :                                                    0.0000000
    Molecular point group: d2h

    Geometry (in Angstrom), charge = -1, multiplicity = 2:

       Center              X                  Y                   Z               Mass
    ------------   -----------------  -----------------  -----------------  -----------------
         C            0.000000000000     0.000000000000    -0.706469500000    12.000000000000
         C            0.000000000000     0.000000000000     0.706469500000    12.000000000000

  Charge       = -1
  Multiplicity = 2
  Basis Set: CC-PVTZ
    Blend: CC-PVTZ
  Basis Set: (CC-PVTZ AUX)
    Blend: CC-PVTZ-JKFIT

    Orbital Energies [Eh]
    ---------------------

    Alpha Occupied:

       1Ag    -9.955142     1B1u   -9.954563     2Ag    -0.436924
       2B1u   -0.150966     3Ag    -0.041522     1B3u   -0.000214
       1B2u   -0.000214

    Alpha Virtual:

       1B3g    0.250411     1B2g    0.250411     3B1u    0.385645
       4Ag     0.508730     2B3u    0.535596     2B2u    0.535596
       5Ag     0.611619     2B3g    0.615013     2B2g    0.615013
       4B1u    0.704351     5B1u    0.854710     1B1g    0.860218
       6Ag     0.860218     3B2u    0.990966     3B3u    0.990966
       1Au     1.117320     6B1u    1.117320     3B3g    1.387268
       3B2g    1.387268     7Ag     1.410512     7B1u    1.480717
       4B3u    2.225793     4B2u    2.225793     8Ag     2.311546
       4B3g    2.417785     4B2g    2.417785     8B1u    2.703484
       2B1g    2.706724     9Ag     2.706724     5B3u    2.735392
       5B2u    2.735392     6B3u    2.855293     6B2u    2.855293
      10Ag     2.927055     5B2g    3.114864     5B3g    3.114864
       3B1g    3.230615    11Ag     3.230618     2Au     3.315384
       9B1u    3.315387     6B2g    3.350508     6B3g    3.350508
      10B1u    3.352039     7B3u    3.607888     7B2u    3.607888
       3Au     3.610942    11B1u    3.610943    12B1u    4.018617
      12Ag     4.046509    13Ag     4.463873     7B3g    4.526062
       7B2g    4.526062    13B1u    9.567165

    Beta Occupied:

       1Ag    -9.947003     1B1u   -9.946573     2Ag    -0.405735
       2B1u   -0.092211     1B3u    0.007515     1B2u    0.007515

    Beta Virtual:

       3Ag     0.090517     1B3g    0.262530     1B2g    0.262530
       3B1u    0.395426     4Ag     0.534746     2B3u    0.539721
       2B2u    0.539721     2B3g    0.620309     2B2g    0.620309
       5Ag     0.629306     4B1u    0.756467     1B1g    0.861686
       6Ag     0.861686     5B1u    0.862944     3B2u    1.014878
       3B3u    1.014878     1Au     1.121984     6B1u    1.121984
       3B3g    1.407585     3B2g    1.407585     7Ag     1.442775
       7B1u    1.514273     4B3u    2.232613     4B2u    2.232613
       8Ag     2.344806     4B3g    2.422582     4B2g    2.422582
       2B1g    2.724071     9Ag     2.724071     8B1u    2.739671
       5B3u    2.766444     5B2u    2.766444     6B3u    2.856546
       6B2u    2.856546    10Ag     2.984265     5B2g    3.116082
       5B3g    3.116082     3B1g    3.237246    11Ag     3.237249
       2Au     3.319116     9B1u    3.319119    10B1u    3.391152
       6B2g    3.394987     6B3g    3.394987     3Au     3.629977
      11B1u    3.629978     7B3u    3.647464     7B2u    3.647464
      12B1u    4.067885    12Ag     4.074433    13Ag     4.495711
       7B3g    4.553936     7B2g    4.553936    13B1u    9.583883

    Final Occupation by Irrep:
             Ag   B1g   B2g   B3g    Au   B1u   B2u   B3u
    DOCC [     2,    0,    0,    0,    0,    2,    1,    1 ]
    SOCC [     1,    0,    0,    0,    0,    0,    0,    0 ]
    NA   [     3,    0,    0,    0,    0,    2,    1,    1 ]
    NB   [     2,    0,    0,    0,    0,    2,    1,    1 ]

  @DF-UKS Final Energy:   -76.03356986071134

   => Energetics <=

    Nuclear Repulsion Energy =             13.4828039880844130
    One-Electron Energy =                -131.8334987425156157
    Two-Electron Energy =                  51.0301670782947667
    DFT Exchange-Correlation Energy =      -8.7130421845749098
    Empirical Dispersion Energy =           0.0000000000000000
    VV10 Nonlocal Energy =                  0.0000000000000000
    Total Energy =                        -76.0335698607113386

  UHF NO Occupations:
  HONO-2 :    2 Ag 1.9996713
  HONO-1 :    2B1u 1.9981095
  HONO-0 :    3 Ag 1.0000000
  LUNO+0 :    3B1u 0.0018905
  LUNO+1 :    4 Ag 0.0003287
  LUNO+2 :    2B3u 0.0001095
  LUNO+3 :    2B2u 0.0001095

Computation Completed

Properties will be evaluated at   0.000000,   0.000000,   0.000000 [a0]

Properties computed using the B3LYP density matrix

 Multipole Moments:

 ------------------------------------------------------------------------------------
     Multipole            Electronic (a.u.)      Nuclear  (a.u.)        Total (a.u.)
 ------------------------------------------------------------------------------------

 L = 1.  Multiply by 2.5417464519 to convert [e a0] to [Debye]
 Dipole X            :          0.0000000            0.0000000            0.0000000
 Dipole Y            :          0.0000000            0.0000000            0.0000000
 Dipole Z            :          0.0000000            0.0000000            0.0000000
 Magnitude           :                                                    0.0000000

 L = 2.  Multiply by 1.3450342976 to convert [e a0^2] to [Debye ang]
 Quadrupole XX       :        -11.9419483            0.0000000          -11.9419483
 Quadrupole XY       :          0.0000000            0.0000000            0.0000000
 Quadrupole XZ       :          0.0000000            0.0000000            0.0000000
 Quadrupole YY       :        -11.9419483            0.0000000          -11.9419483
 Quadrupole YZ       :          0.0000000            0.0000000            0.0000000
 Quadrupole ZZ       :        -34.9354623           21.3877852          -13.5476770
 Traceless XX        :          7.6645047           -7.1292617            0.5352429
 Traceless YY        :          7.6645047           -7.1292617            0.5352429
 Traceless ZZ        :        -15.3290094           14.2585235           -1.0704859

 ------------------------------------------------------------------------------------
  ==> Computing MBIS Charges <==

  Electron Count from Grid (Expected Number): 13.00000 (13.00000)
  Difference:  0.00000

  MBIS Charges: (a.u.)
   Center  Symbol  Z      Pop.       Charge
      1       C    6    6.500000   -0.500000
      2       C    6    6.500000   -0.500000

  MBIS Dipoles: [e a0]
   Center  Symbol  Z        X           Y           Z
      1       C    6   -0.000000    0.000000   -0.095959
      2       C    6   -0.000000    0.000000    0.095959

  MBIS Quadrupoles: [e a0^2]
   Center  Symbol  Z      XX        XY        XZ        YY        YZ        ZZ
      1       C    6   -5.9710    0.0000   -0.0000   -5.9710   -0.0000   -6.1389
      2       C    6   -5.9710    0.0000    0.0000   -5.9710    0.0000   -6.1389

  MBIS Octupoles: [e a0^3]
   Center  Symbol  Z      XXX       XXY       XXZ       XYY       XYZ       XZZ       YYY       YYZ       YZZ       ZZZ
      1       C    6   -0.0000    0.0000   -0.3104    0.0000   -0.0000   -0.0000    0.0000   -0.3104    0.0000   -0.5637
      2       C    6   -0.0000    0.0000    0.3104    0.0000    0.0000   -0.0000    0.0000    0.3104    0.0000    0.5637

  MBIS Radial Moments:
   Center  Symbol  Z      [a0^2]      [a0^3]      [a0^4]
      1       C    6   18.080846   48.806777   155.839480
      2       C    6   18.080846   48.806777   155.839480

  MBIS Valence Widths: [a0]
   Center  Symbol  Z     Width
      1       C    6    0.564929
      2       C    6    0.564929

*** tstop() called on Mac.lan at Sun Aug 10 17:30:59 2025
Module time:
	user time   =       3.85 seconds =       0.06 minutes
	system time =       2.48 seconds =       0.04 minutes
	total time  =          0 seconds =       0.00 minutes
Total time:
	user time   =      16.41 seconds =       0.27 minutes
	system time =       4.74 seconds =       0.08 minutes
	total time  =          2 seconds =       0.03 minutes

    Psi4 stopped on: Sunday, 10 August 2025 05:30PM
    Psi4 wall time for execution: 0:00:02.06

*** Psi4 exiting successfully. Buy a developer a beer!
