                               Psi4 1.9.1 release

  ==> Input File <==

--------------------------------------------------------------------------
molecule {
-1 2
O           0.000000           0.000000           0.000000
O           0.000000           0.000000           1.584202
}

set {
basis              cc-pvtz
reference          uks
maxiter            500
DAMPING_PERCENTAGE 1
E_CONVERGENCE      1.0E-8
D_CONVERGENCE      1.0E-8
DIIS_MAX_VECS      400
MBIS_MAXITER       8000
guess              read
}

E, wfn = energy('b3lyp', restart_file='last_wfn', return_wfn=True)
properties('b3lyp','MBIS_CHARGES', wfn=wfn)
wfn.to_file('last_wfn')
--------------------------------------------------------------------------

    Molecular point group: d2h
  Charge       = -1
  Multiplicity = 2
  Basis Set: CC-PVTZ
    Blend: CC-PVTZ
  Basis Set: (CC-PVTZ AUX)
    Blend: CC-PVTZ-JKFIT
  @DF-UKS Final Energy:  -150.35174784023371
    Total Energy =                       -150.3517478402337133
 Dipole X            :          0.0000000            0.0000000            0.0000000
 Dipole Y            :          0.0000000            0.0000000            0.0000000
 Dipole Z            :          0.0000000            0.0000000            0.0000000
 Magnitude           :                                                    0.0000000
    Molecular point group: d2h

    Geometry (in Angstrom), charge = -1, multiplicity = 2:

       Center              X                  Y                   Z               Mass
    ------------   -----------------  -----------------  -----------------  -----------------
         O            0.000000000000     0.000000000000    -0.792101000000    15.994914619570
         O            0.000000000000     0.000000000000     0.792101000000    15.994914619570

  Charge       = -1
  Multiplicity = 2
  Basis Set: CC-PVTZ
    Blend: CC-PVTZ
  Basis Set: (CC-PVTZ AUX)
    Blend: CC-PVTZ-JKFIT

    Orbital Energies [Eh]
    ---------------------

    Alpha Occupied:

       1Ag   -18.860945     1B1u  -18.860911     2Ag    -0.691474
       2B1u   -0.512441     3Ag    -0.096299     1B2u   -0.090876
       1B3u   -0.052653     1B3g    0.013694     1B2g    0.055599

    Alpha Virtual:

       3B1u    0.278212     4B1u    0.785104     2B2u    0.829177
       2B3u    0.852360     4Ag     0.898805     2B3g    0.915072
       2B2g    0.935378     5Ag     1.054395     5B1u    1.461706
       3B2u    1.553177     3B3u    1.574955     6Ag     1.685418
       1B1g    1.685655     1Au     1.867426     6B1u    1.867737
       7Ag     1.952255     3B3g    2.238938     3B2g    2.264109
       7B1u    2.626922     8Ag     3.739802     4B2u    3.801996
       4B3u    3.836514     4B3g    3.937286     4B2g    3.973624
       8B1u    4.435508     5B2u    5.089084     5B3u    5.117922
       9Ag     5.156510     2B1g    5.289210    10Ag     5.291795
       6B2u    5.420674     6B3u    5.420721     5B3g    5.448471
       5B2g    5.448493     9B1u    5.558473     2Au     5.558500
       6B3g    5.862277     6B2g    5.891147    10B1u    6.156032
      11Ag     6.430514     3B1g    6.430951     7B2u    6.449261
       7B3u    6.483272     3Au     6.551527    11B1u    6.551705
      12Ag     6.768113     7B3g    6.971569     7B2g    7.004205
      13Ag     7.646946    12B1u    7.668363    13B1u    8.348183

    Beta Occupied:

       1Ag   -18.846869     1B1u  -18.846809     2Ag    -0.657487
       2B1u   -0.469309     3Ag    -0.082601     1B3u   -0.040794
       1B2u   -0.001051     1B2g    0.070000

    Beta Virtual:

       1B3g    0.175643     3B1u    0.295620     4B1u    0.792525
       2B3u    0.858242     2B2u    0.869774     4Ag     0.906918
       2B2g    0.940912     2B3g    0.952859     5Ag     1.064518
       5B1u    1.478116     3B2u    1.574967     3B3u    1.576301
       1B1g    1.708958     6Ag     1.710205     1Au     1.895231
       6B1u    1.896659     7Ag     1.965704     3B2g    2.267608
       3B3g    2.269477     7B1u    2.638258     8Ag     3.748694
       4B3u    3.846989     4B2u    3.862866     4B2g    3.984941
       4B3g    4.000423     8B1u    4.450982     5B2u    5.121343
       5B3u    5.122342     9Ag     5.176469     2B1g    5.312323
      10Ag     5.313670     6B3u    5.455812     6B2u    5.456096
       5B2g    5.484288     5B3g    5.484574     2Au     5.582689
       9B1u    5.584095     6B2g    5.895796     6B3g    5.897918
      10B1u    6.171594     3B1g    6.481578    11Ag     6.485090
       7B3u    6.490505     7B2u    6.502503     3Au     6.601552
      11B1u    6.605069    12Ag     6.780456     7B2g    7.010160
       7B3g    7.019219    13Ag     7.677535    12B1u    7.683790
      13B1u    8.372377

    Final Occupation by Irrep:
             Ag   B1g   B2g   B3g    Au   B1u   B2u   B3u
    DOCC [     3,    0,    1,    0,    0,    2,    1,    1 ]
    SOCC [     0,    0,    0,    1,    0,    0,    0,    0 ]
    NA   [     3,    0,    1,    1,    0,    2,    1,    1 ]
    NB   [     3,    0,    1,    0,    0,    2,    1,    1 ]

  @DF-UKS Final Energy:  -150.35174784000344

   => Energetics <=

    Nuclear Repulsion Energy =             21.3781711441344022
    One-Electron Energy =                -255.4712411026502821
    Two-Electron Energy =                  97.6783989993782313
    DFT Exchange-Correlation Energy =     -13.9370768808657797
    Empirical Dispersion Energy =           0.0000000000000000
    VV10 Nonlocal Energy =                  0.0000000000000000
    Total Energy =                       -150.3517478400034406

  UHF NO Occupations:
  HONO-2 :    2B1u 1.9997575
  HONO-1 :    1B2u 1.9980716
  HONO-0 :    1B3g 1.0000000
  LUNO+0 :    2B2u 0.0019284
  LUNO+1 :    3B1u 0.0002425
  LUNO+2 :    4 Ag 0.0001539
  LUNO+3 :    2B3u 0.0000535

Computation Completed

Properties will be evaluated at   0.000000,   0.000000,   0.000000 [a0]

Properties computed using the B3LYP density matrix

 Multipole Moments:

 ------------------------------------------------------------------------------------
     Multipole            Electronic (a.u.)      Nuclear  (a.u.)        Total (a.u.)
 ------------------------------------------------------------------------------------

 L = 1.  Multiply by 2.5417464519 to convert [e a0] to [Debye]
 Dipole X            :          0.0000000            0.0000000            0.0000000
 Dipole Y            :          0.0000000            0.0000000            0.0000000
 Dipole Z            :          0.0000000            0.0000000            0.0000000
 Magnitude           :                                                    0.0000000

 L = 2.  Multiply by 1.3450342976 to convert [e a0^2] to [Debye ang]
 Quadrupole XX       :         -9.8294884            0.0000000           -9.8294884
 Quadrupole XY       :          0.0000000            0.0000000            0.0000000
 Quadrupole XZ       :          0.0000000            0.0000000            0.0000000
 Quadrupole YY       :         -9.0361384            0.0000000           -9.0361384
 Quadrupole YZ       :          0.0000000            0.0000000            0.0000000
 Quadrupole ZZ       :        -47.3070283           35.8491481          -11.4578802
 Traceless XX        :         12.2280633          -11.9497160            0.2783473
 Traceless YY        :         13.0214133          -11.9497160            1.0716972
 Traceless ZZ        :        -25.2494766           23.8994321           -1.3500445

 ------------------------------------------------------------------------------------
  ==> Computing MBIS Charges <==

  Electron Count from Grid (Expected Number): 17.00000 (17.00000)
  Difference: -0.00000

  MBIS Charges: (a.u.)
   Center  Symbol  Z      Pop.       Charge
      1       O    8    8.499999   -0.499999
      2       O    8    8.499999   -0.499999

  MBIS Dipoles: [e a0]
   Center  Symbol  Z        X           Y           Z
      1       O    8   -0.000000   -0.000000    0.107070
      2       O    8   -0.000000   -0.000000   -0.107070

  MBIS Quadrupoles: [e a0^2]
   Center  Symbol  Z      XX        XY        XZ        YY        YZ        ZZ
      1       O    8   -4.9147    0.0000   -0.0000   -4.5181   -0.0000   -4.2881
      2       O    8   -4.9147    0.0000    0.0000   -4.5181    0.0000   -4.2881

  MBIS Octupoles: [e a0^3]
   Center  Symbol  Z      XXX       XXY       XXZ       XYY       XYZ       XZZ       YYY       YYZ       YZZ       ZZZ
      1       O    8   -0.0000   -0.0000    0.1412   -0.0000    0.0000   -0.0000   -0.0000    0.0283   -0.0000   -0.2622
      2       O    8   -0.0000   -0.0000   -0.1412   -0.0000   -0.0000   -0.0000   -0.0000   -0.0283   -0.0000    0.2622

  MBIS Radial Moments:
   Center  Symbol  Z      [a0^2]      [a0^3]      [a0^4]
      1       O    8   13.720930   27.632341   66.358094
      2       O    8   13.720930   27.632341   66.358094

  MBIS Valence Widths: [a0]
   Center  Symbol  Z     Width
      1       O    8    0.409689
      2       O    8    0.409689

*** tstop() called on Mac.lan at Sun Aug 10 17:28:36 2025
Module time:
	user time   =       3.66 seconds =       0.06 minutes
	system time =       1.88 seconds =       0.03 minutes
	total time  =          0 seconds =       0.00 minutes
Total time:
	user time   =      16.03 seconds =       0.27 minutes
	system time =       3.83 seconds =       0.06 minutes
	total time  =          2 seconds =       0.03 minutes

    Psi4 stopped on: Sunday, 10 August 2025 05:28PM
    Psi4 wall time for execution: 0:00:01.95

*** Psi4 exiting successfully. Buy a developer a beer!
