                               Psi4 1.9.1 release

  ==> Input File <==

--------------------------------------------------------------------------
molecule {
-1 2
C           0.000000           0.000000           0.000000
C           0.000000           0.000000           1.796304
}

set {
basis              cc-pvtz
reference          uks
maxiter            500
DAMPING_PERCENTAGE 1
E_CONVERGENCE      1.0E-8
D_CONVERGENCE      1.0E-8
DIIS_MAX_VECS      400
MBIS_MAXITER       8000
guess              read
}

E, wfn = energy('b3lyp', restart_file='last_wfn', return_wfn=True)
properties('b3lyp','MBIS_CHARGES', wfn=wfn)
wfn.to_file('last_wfn')
--------------------------------------------------------------------------

    Molecular point group: d2h
  Charge       = -1
  Multiplicity = 2
  Basis Set: CC-PVTZ
    Blend: CC-PVTZ
  Basis Set: (CC-PVTZ AUX)
    Blend: CC-PVTZ-JKFIT
  @DF-UKS Final Energy:   -75.90495453003469
    Total Energy =                        -75.9049545300346864
 Dipole X            :          0.0000000            0.0000000            0.0000000
 Dipole Y            :          0.0000000            0.0000000            0.0000000
 Dipole Z            :          0.0000000            0.0000000            0.0000000
 Magnitude           :                                                    0.0000000
    Molecular point group: d2h

    Geometry (in Angstrom), charge = -1, multiplicity = 2:

       Center              X                  Y                   Z               Mass
    ------------   -----------------  -----------------  -----------------  -----------------
         C            0.000000000000     0.000000000000    -0.898152000000    12.000000000000
         C            0.000000000000     0.000000000000     0.898152000000    12.000000000000

  Charge       = -1
  Multiplicity = 2
  Basis Set: CC-PVTZ
    Blend: CC-PVTZ
  Basis Set: (CC-PVTZ AUX)
    Blend: CC-PVTZ-JKFIT

    Orbital Energies [Eh]
    ---------------------

    Alpha Occupied:

       1Ag   -10.014139     1B1u  -10.014009     2Ag    -0.372770
       2B1u   -0.209753     3Ag    -0.040676     1B2u    0.019502
       1B3u    0.019502

    Alpha Virtual:

       1B2g    0.176114     1B3g    0.176114     3B1u    0.316630
       4B1u    0.496792     4Ag     0.520039     2B3u    0.541046
       2B2u    0.541046     2B2g    0.587193     2B3g    0.587193
       5Ag     0.609289     6Ag     0.866692     1B1g    0.866692
       5B1u    0.873410     3B2u    0.880767     3B3u    0.880767
       1Au     1.041208     6B1u    1.041208     7Ag     1.269673
       3B3g    1.296669     3B2g    1.296669     7B1u    1.352855
       4B3u    2.160998     4B2u    2.160998     8Ag     2.203339
       4B2g    2.293388     4B3g    2.293388     5B3u    2.706053
       5B2u    2.706053     8B1u    2.720886     9Ag     2.728498
      10Ag     2.746622     2B1g    2.746623     6B3u    2.918578
       6B2u    2.918578     5B2g    2.995872     5B3g    2.995872
       9B1u    3.162208     2Au     3.162211    11Ag     3.200425
       3B1g    3.200434     6B2g    3.297562     6B3g    3.297562
      10B1u    3.323034     3Au     3.323042     7B3u    3.325481
       7B2u    3.325481    11B1u    3.332175    12B1u    3.690835
      12Ag     3.709541     7B2g    3.861877     7B3g    3.861877
      13Ag     4.241801    13B1u    5.696917

    Beta Occupied:

       1Ag   -10.006894     1B1u  -10.006830     2Ag    -0.341145
       2B1u   -0.163590     1B2u    0.026595     1B3u    0.026595

    Beta Virtual:

       3Ag     0.088795     1B2g    0.185108     1B3g    0.185108
       3B1u    0.341581     2B3u    0.544816     2B2u    0.544816
       4B1u    0.548285     4Ag     0.550075     2B2g    0.590695
       2B3g    0.590695     5Ag     0.622332     6Ag     0.868144
       1B1g    0.868144     5B1u    0.882640     3B2u    0.905710
       3B3u    0.905710     1Au     1.043002     6B1u    1.043002
       7Ag     1.301262     3B3g    1.317654     3B2g    1.317654
       7B1u    1.389767     4B3u    2.170731     4B2u    2.170731
       8Ag     2.249344     4B2g    2.297136     4B3g    2.297136
       5B3u    2.734860     5B2u    2.734860     8B1u    2.752154
       9Ag     2.768078     2B1g    2.768078    10Ag     2.769612
       6B3u    2.918056     6B2u    2.918056     5B2g    2.995043
       5B3g    2.995043     9B1u    3.166249     2Au     3.166252
      11Ag     3.201126     3B1g    3.201135     6B2g    3.331548
       6B3g    3.331548    10B1u    3.338134     3Au     3.338142
       7B3u    3.363890     7B2u    3.363890    11B1u    3.384630
      12B1u    3.729600    12Ag     3.762438     7B2g    3.896556
       7B3g    3.896556    13Ag     4.257567    13B1u    5.719206

    Final Occupation by Irrep:
             Ag   B1g   B2g   B3g    Au   B1u   B2u   B3u
    DOCC [     2,    0,    0,    0,    0,    2,    1,    1 ]
    SOCC [     1,    0,    0,    0,    0,    0,    0,    0 ]
    NA   [     3,    0,    0,    0,    0,    2,    1,    1 ]
    NB   [     2,    0,    0,    0,    0,    2,    1,    1 ]

  @DF-UKS Final Energy:   -75.90495453017346

   => Energetics <=

    Nuclear Repulsion Energy =             10.6053204714346805
    One-Electron Energy =                -125.7429100836245368
    Two-Electron Energy =                  47.8224797307752354
    DFT Exchange-Correlation Energy =      -8.5898446487588238
    Empirical Dispersion Energy =           0.0000000000000000
    VV10 Nonlocal Energy =                  0.0000000000000000
    Total Energy =                        -75.9049545301734554

  UHF NO Occupations:
  HONO-2 :    2 Ag 1.9995680
  HONO-1 :    2B1u 1.9969462
  HONO-0 :    3 Ag 1.0000000
  LUNO+0 :    3B1u 0.0030538
  LUNO+1 :    4 Ag 0.0004320
  LUNO+2 :    2B2u 0.0000968
  LUNO+3 :    2B3u 0.0000968

Computation Completed

Properties will be evaluated at   0.000000,   0.000000,   0.000000 [a0]

Properties computed using the B3LYP density matrix

 Multipole Moments:

 ------------------------------------------------------------------------------------
     Multipole            Electronic (a.u.)      Nuclear  (a.u.)        Total (a.u.)
 ------------------------------------------------------------------------------------

 L = 1.  Multiply by 2.5417464519 to convert [e a0] to [Debye]
 Dipole X            :          0.0000000            0.0000000            0.0000000
 Dipole Y            :          0.0000000            0.0000000            0.0000000
 Dipole Z            :          0.0000000            0.0000000            0.0000000
 Magnitude           :                                                    0.0000000

 L = 2.  Multiply by 1.3450342976 to convert [e a0^2] to [Debye ang]
 Quadrupole XX       :        -12.7164309            0.0000000          -12.7164309
 Quadrupole XY       :          0.0000000            0.0000000            0.0000000
 Quadrupole XZ       :          0.0000000            0.0000000            0.0000000
 Quadrupole YY       :        -12.7164309            0.0000000          -12.7164309
 Quadrupole YZ       :          0.0000000            0.0000000            0.0000000
 Quadrupole ZZ       :        -48.6530006           34.5683510          -14.0846496
 Traceless XX        :         11.9788566          -11.5227837            0.4560729
 Traceless YY        :         11.9788566          -11.5227837            0.4560729
 Traceless ZZ        :        -23.9577132           23.0455673           -0.9121458

 ------------------------------------------------------------------------------------
  ==> Computing MBIS Charges <==

  Electron Count from Grid (Expected Number): 13.00000 (13.00000)
  Difference: -0.00000

  MBIS Charges: (a.u.)
   Center  Symbol  Z      Pop.       Charge
      1       C    6    6.500000   -0.500000
      2       C    6    6.500000   -0.500000

  MBIS Dipoles: [e a0]
   Center  Symbol  Z        X           Y           Z
      1       C    6   -0.000000    0.000000   -0.152710
      2       C    6   -0.000000    0.000000    0.152710

  MBIS Quadrupoles: [e a0^2]
   Center  Symbol  Z      XX        XY        XZ        YY        YZ        ZZ
      1       C    6   -6.3582    0.0000    0.0000   -6.3582   -0.0000   -6.1204
      2       C    6   -6.3582    0.0000   -0.0000   -6.3582    0.0000   -6.1204

  MBIS Octupoles: [e a0^3]
   Center  Symbol  Z      XXX       XXY       XXZ       XYY       XYZ       XZZ       YYY       YYZ       YZZ       ZZZ
      1       C    6   -0.0000   -0.0000   -0.6738   -0.0000    0.0000   -0.0000    0.0000   -0.6738    0.0000   -1.5490
      2       C    6   -0.0000   -0.0000    0.6738   -0.0000   -0.0000   -0.0000    0.0000    0.6738    0.0000    1.5490

  MBIS Radial Moments:
   Center  Symbol  Z      [a0^2]      [a0^3]      [a0^4]
      1       C    6   18.836786   51.916570   168.831838
      2       C    6   18.836786   51.916570   168.831838

  MBIS Valence Widths: [a0]
   Center  Symbol  Z     Width
      1       C    6    0.577550
      2       C    6    0.577550

*** tstop() called on Mac.lan at Sun Aug 10 17:31:48 2025
Module time:
	user time   =       3.30 seconds =       0.05 minutes
	system time =       2.38 seconds =       0.04 minutes
	total time  =          1 seconds =       0.02 minutes
Total time:
	user time   =      16.58 seconds =       0.28 minutes
	system time =       4.89 seconds =       0.08 minutes
	total time  =          2 seconds =       0.03 minutes

    Psi4 stopped on: Sunday, 10 August 2025 05:31PM
    Psi4 wall time for execution: 0:00:02.08

*** Psi4 exiting successfully. Buy a developer a beer!
