                               Psi4 1.9.1 release

  ==> Input File <==

--------------------------------------------------------------------------
molecule {
-1 1
O           0.000000           0.000000           0.000000
H           0.000000           0.000000           1.183110
}

set {
basis              cc-pvtz
reference          uks
maxiter            500
DAMPING_PERCENTAGE 1
E_CONVERGENCE      1.0E-8
D_CONVERGENCE      1.0E-8
DIIS_MAX_VECS      400
MBIS_MAXITER       8000
guess              read
}

E, wfn = energy('b3lyp', restart_file='last_wfn', return_wfn=True)
properties('b3lyp','MBIS_CHARGES', wfn=wfn)
wfn.to_file('last_wfn')
--------------------------------------------------------------------------

    Molecular point group: c2v
  Charge       = -1
  Multiplicity = 1
  Basis Set: CC-PVTZ
    Blend: CC-PVTZ
  Basis Set: (CC-PVTZ AUX)
    Blend: CC-PVTZ-JKFIT
  @DF-UKS Final Energy:   -75.76764836146771
    Total Energy =                        -75.7676483614677210
 Dipole X            :          0.0000000            0.0000000            0.0000000
 Dipole Y            :          0.0000000            0.0000000            0.0000000
 Dipole Z            :         -0.8587057            1.0430497            0.1843440
 Magnitude           :                                                    0.1843440
    Molecular point group: c2v

    Geometry (in Angstrom), charge = -1, multiplicity = 1:

       Center              X                  Y                   Z               Mass
    ------------   -----------------  -----------------  -----------------  -----------------
         O            0.000000000000     0.000000000000    -0.070127985154    15.994914619570
         H            0.000000000000     0.000000000000     1.112982014846     1.007825032230

  Charge       = -1
  Multiplicity = 1
  Basis Set: CC-PVTZ
    Blend: CC-PVTZ
  Basis Set: (CC-PVTZ AUX)
    Blend: CC-PVTZ-JKFIT

    Orbital Energies [Eh]
    ---------------------

    Alpha Occupied:

       1A1   -18.709020     2A1    -0.494097     3A1    -0.022977
       1B2     0.105728     1B1     0.105728

    Alpha Virtual:

       4A1     0.290732     5A1     0.606987     6A1     0.879252
       2B1     0.909773     2B2     0.909773     3B1     1.025949
       3B2     1.025949     7A1     1.288014     8A1     1.431620
       1A2     1.877362     9A1     1.877362     4B1     2.060713
       4B2     2.060713    10A1     2.450917    11A1     2.667522
      12A1     3.527221     2A2     3.527222     5B1     3.668100
       5B2     3.668100    13A1     3.788756     6B1     4.019541
       6B2     4.019541     7B1     4.249677     7B2     4.249677
      14A1     4.282174    15A1     5.209369     8B1     5.573800
       8B2     5.573800     3A2     5.639885    16A1     5.639885
       9B2     6.195619     9B1     6.195619    17A1     6.507483
      18A1     6.648354     4A2     6.648355    10B1     6.911374
      10B2     6.911374    19A1     7.278941    20A1     8.936953

    Beta Occupied:

       1A1   -18.709020     2A1    -0.494097     3A1    -0.022977
       1B2     0.105728     1B1     0.105728

    Beta Virtual:

       4A1     0.290732     5A1     0.606987     6A1     0.879252
       2B1     0.909773     2B2     0.909773     3B1     1.025949
       3B2     1.025949     7A1     1.288014     8A1     1.431620
       1A2     1.877362     9A1     1.877362     4B1     2.060713
       4B2     2.060713    10A1     2.450917    11A1     2.667522
      12A1     3.527221     2A2     3.527222     5B1     3.668100
       5B2     3.668100    13A1     3.788756     6B1     4.019541
       6B2     4.019541     7B1     4.249677     7B2     4.249677
      14A1     4.282174    15A1     5.209369     8B1     5.573800
       8B2     5.573800     3A2     5.639885    16A1     5.639885
       9B2     6.195619     9B1     6.195619    17A1     6.507483
      18A1     6.648354     4A2     6.648355    10B1     6.911374
      10B2     6.911374    19A1     7.278941    20A1     8.936953

    Final Occupation by Irrep:
             A1    A2    B1    B2
    DOCC [     3,    0,    1,    1 ]
    SOCC [     0,    0,    0,    0 ]
    NA   [     3,    0,    1,    1 ]
    NB   [     3,    0,    1,    1 ]

  @DF-UKS Final Energy:   -75.76764836155120

   => Energetics <=

    Nuclear Repulsion Energy =              3.5782113965396283
    One-Electron Energy =                -115.3505453357534236
    Two-Electron Energy =                  43.3962555901305933
    DFT Exchange-Correlation Energy =      -7.3915700124679784
    Empirical Dispersion Energy =           0.0000000000000000
    VV10 Nonlocal Energy =                  0.0000000000000000
    Total Energy =                        -75.7676483615511813

  UHF NO Occupations:
  HONO-2 :    2 A1 2.0000000
  HONO-1 :    1 B1 2.0000000
  HONO-0 :    3 A1 2.0000000
  LUNO+0 :    4 A1 0.0000000
  LUNO+1 :    5 A1 0.0000000
  LUNO+2 :    6 A1 0.0000000
  LUNO+3 :    7 A1 0.0000000

Computation Completed

Properties will be evaluated at   0.000000,   0.000000,   0.000000 [a0]

Properties computed using the B3LYP density matrix

 Multipole Moments:

 ------------------------------------------------------------------------------------
     Multipole            Electronic (a.u.)      Nuclear  (a.u.)        Total (a.u.)
 ------------------------------------------------------------------------------------

 L = 1.  Multiply by 2.5417464519 to convert [e a0] to [Debye]
 Dipole X            :          0.0000000            0.0000000            0.0000000
 Dipole Y            :          0.0000000            0.0000000            0.0000000
 Dipole Z            :         -0.8587057            1.0430497            0.1843440
 Magnitude           :                                                    0.1843440

 L = 2.  Multiply by 1.3450342976 to convert [e a0^2] to [Debye ang]
 Quadrupole XX       :         -6.5313506            0.0000000           -6.5313506
 Quadrupole XY       :          0.0000000            0.0000000            0.0000000
 Quadrupole XZ       :          0.0000000            0.0000000            0.0000000
 Quadrupole YY       :         -6.5313506            0.0000000           -6.5313506
 Quadrupole YZ       :          0.0000000            0.0000000            0.0000000
 Quadrupole ZZ       :        -10.1849569            4.5640795           -5.6208773
 Traceless XX        :          1.2178687           -1.5213598           -0.3034911
 Traceless YY        :          1.2178687           -1.5213598           -0.3034911
 Traceless ZZ        :         -2.4357375            3.0427197            0.6069822

 ------------------------------------------------------------------------------------
  ==> Computing MBIS Charges <==

  Electron Count from Grid (Expected Number): 10.00000 (10.00000)
  Difference:  0.00000

  MBIS Charges: (a.u.)
   Center  Symbol  Z      Pop.       Charge
      1       O    8    9.063796   -1.063796
      2       H    1    0.936204    0.063796

  MBIS Dipoles: [e a0]
   Center  Symbol  Z        X           Y           Z
      1       O    8   -0.000000   -0.000000   -0.106050
      2       H    1    0.000000   -0.000000    0.015238

  MBIS Quadrupoles: [e a0^2]
   Center  Symbol  Z      XX        XY        XZ        YY        YZ        ZZ
      1       O    8   -5.6444    0.0000    0.0000   -5.6444   -0.0000   -5.1077
      2       H    1   -0.8870    0.0000    0.0000   -0.8870   -0.0000   -0.8689

  MBIS Octupoles: [e a0^3]
   Center  Symbol  Z      XXX       XXY       XXZ       XYY       XYZ       XZZ       YYY       YYZ       YZZ       ZZZ
      1       O    8   -0.0000   -0.0000   -0.1940   -0.0000   -0.0000    0.0000   -0.0000   -0.1940   -0.0000   -0.9546
      2       H    1    0.0000   -0.0000    0.0011    0.0000    0.0000   -0.0000   -0.0000    0.0011   -0.0000   -0.0056

  MBIS Radial Moments:
   Center  Symbol  Z      [a0^2]      [a0^3]      [a0^4]
      1       O    8   16.396396   34.629637   86.752553
      2       H    1    2.642915    6.386258   18.244372

  MBIS Valence Widths: [a0]
   Center  Symbol  Z     Width
      1       O    8    0.431499
      2       H    1    0.483687

*** tstop() called on Mac.lan at Sun Aug 10 17:38:16 2025
Module time:
	user time   =       2.92 seconds =       0.05 minutes
	system time =       1.97 seconds =       0.03 minutes
	total time  =          1 seconds =       0.02 minutes
Total time:
	user time   =      13.11 seconds =       0.22 minutes
	system time =       3.97 seconds =       0.07 minutes
	total time  =          2 seconds =       0.03 minutes

    Psi4 stopped on: Sunday, 10 August 2025 05:38PM
    Psi4 wall time for execution: 0:00:01.66

*** Psi4 exiting successfully. Buy a developer a beer!
