                               Psi4 1.9.1 release

  ==> Input File <==

--------------------------------------------------------------------------
molecule {
-1 3
C           0.000000           0.000000           0.000000
H           0.000000           0.000000           1.456758
}

set {
basis              cc-pvtz
reference          uks
maxiter            500
DAMPING_PERCENTAGE 1
E_CONVERGENCE      1.0E-8
D_CONVERGENCE      1.0E-8
DIIS_MAX_VECS      400
MBIS_MAXITER       8000
guess              read
}

E, wfn = energy('b3lyp', restart_file='last_wfn', return_wfn=True)
properties('b3lyp','MBIS_CHARGES', wfn=wfn)
wfn.to_file('last_wfn')
--------------------------------------------------------------------------

    Molecular point group: c2v
  Charge       = -1
  Multiplicity = 3
  Basis Set: CC-PVTZ
    Blend: CC-PVTZ
  Basis Set: (CC-PVTZ AUX)
    Blend: CC-PVTZ-JKFIT
  @DF-UKS Final Energy:   -38.50752176907394
    Total Energy =                        -38.5075217690739393
 Dipole X            :          0.0000000            0.0000000            0.0000000
 Dipole Y            :          0.0000000            0.0000000            0.0000000
 Dipole Z            :         -1.4278717            1.2598566           -0.1680151
 Magnitude           :                                                    0.1680151
    Molecular point group: c2v

    Geometry (in Angstrom), charge = -1, multiplicity = 3:

       Center              X                  Y                   Z               Mass
    ------------   -----------------  -----------------  -----------------  -----------------
         C            0.000000000000     0.000000000000    -0.112867229892    12.000000000000
         H            0.000000000000     0.000000000000     1.343890770108     1.007825032230

  Charge       = -1
  Multiplicity = 3
  Basis Set: CC-PVTZ
    Blend: CC-PVTZ
  Basis Set: (CC-PVTZ AUX)
    Blend: CC-PVTZ-JKFIT

    Orbital Energies [Eh]
    ---------------------

    Alpha Occupied:

       1A1    -9.919089     2A1    -0.272955     3A1     0.000418
       1B1     0.071096     1B2     0.071096

    Alpha Virtual:

       4A1     0.267262     5A1     0.520277     2B1     0.562334
       2B2     0.562334     6A1     0.587588     7A1     0.721655
       3B1     0.837577     3B2     0.837577     1A2     0.954292
       8A1     0.954292     9A1     1.159599     4B1     1.227824
       4B2     1.227824    10A1     1.476828     5B1     2.246023
       5B2     2.246023    11A1     2.440539    12A1     2.747894
       6B1     2.876768     6B2     2.876768     2A2     2.917405
      13A1     2.917405    14A1     2.971342     7B1     2.975937
       7B2     2.975937     3A2     3.231687    15A1     3.231687
       8B2     3.337390     8B1     3.337390    16A1     3.477216
       4A2     3.623065    17A1     3.623069     9B1     3.971136
       9B2     3.971136    18A1     3.989885    10B1     4.338528
      10B2     4.338528    19A1     4.515718    20A1     6.072597

    Beta Occupied:

       1A1    -9.894436     2A1    -0.190665     3A1     0.023889

    Beta Virtual:

       1B1     0.231814     1B2     0.231814     4A1     0.282112
       5A1     0.527182     6A1     0.605751     2B1     0.633463
       2B2     0.633463     7A1     0.768287     3B1     0.858197
       3B2     0.858197     1A2     1.030750     8A1     1.030750
       9A1     1.181683     4B1     1.253056     4B2     1.253056
      10A1     1.486260     5B1     2.325007     5B2     2.325007
      11A1     2.461555    12A1     2.752060     6B1     2.913901
       6B2     2.913901     2A2     2.972990    13A1     2.972990
      14A1     3.004544     7B2     3.072242     7B1     3.072242
       3A2     3.350338    15A1     3.350339     8B2     3.400599
       8B1     3.400599    16A1     3.516117     4A2     3.631686
      17A1     3.631690     9B2     3.967429     9B1     3.967429
      18A1     4.015791    10B1     4.349306    10B2     4.349306
      19A1     4.516462    20A1     6.096433

    Final Occupation by Irrep:
             A1    A2    B1    B2
    DOCC [     3,    0,    0,    0 ]
    SOCC [     0,    0,    1,    1 ]
    NA   [     3,    0,    1,    1 ]
    NB   [     3,    0,    0,    0 ]

  @DF-UKS Final Energy:   -38.50752176898960

   => Energetics <=

    Nuclear Repulsion Energy =              2.1795406402573390
    One-Electron Energy =                 -57.8729082634395482
    Two-Electron Energy =                  21.8867339631068916
    DFT Exchange-Correlation Energy =      -4.7008881089142687
    Empirical Dispersion Energy =           0.0000000000000000
    VV10 Nonlocal Energy =                  0.0000000000000000
    Total Energy =                        -38.5075217689895908

  UHF NO Occupations:
  HONO-2 :    3 A1 1.9970422
  HONO-1 :    1 B2 1.0000000
  HONO-0 :    1 B1 1.0000000
  LUNO+0 :    4 A1 0.0029578
  LUNO+1 :    5 A1 0.0008604
  LUNO+2 :    6 A1 0.0000011
  LUNO+3 :    7 A1 0.0000000

Computation Completed

Properties will be evaluated at   0.000000,   0.000000,   0.000000 [a0]

Properties computed using the B3LYP density matrix

 Multipole Moments:

 ------------------------------------------------------------------------------------
     Multipole            Electronic (a.u.)      Nuclear  (a.u.)        Total (a.u.)
 ------------------------------------------------------------------------------------

 L = 1.  Multiply by 2.5417464519 to convert [e a0] to [Debye]
 Dipole X            :          0.0000000            0.0000000            0.0000000
 Dipole Y            :          0.0000000            0.0000000            0.0000000
 Dipole Z            :         -1.4278717            1.2598566           -0.1680151
 Magnitude           :                                                    0.1680151

 L = 2.  Multiply by 1.3450342976 to convert [e a0^2] to [Debye ang]
 Quadrupole XX       :         -8.2019964            0.0000000           -8.2019964
 Quadrupole XY       :          0.0000000            0.0000000            0.0000000
 Quadrupole XZ       :          0.0000000            0.0000000            0.0000000
 Quadrupole YY       :         -8.2019964            0.0000000           -8.2019964
 Quadrupole YZ       :          0.0000000            0.0000000            0.0000000
 Quadrupole ZZ       :        -16.6177116            6.7224455           -9.8952661
 Traceless XX        :          2.8052384           -2.2408152            0.5644232
 Traceless YY        :          2.8052384           -2.2408152            0.5644232
 Traceless ZZ        :         -5.6104768            4.4816303           -1.1288465

 ------------------------------------------------------------------------------------
  ==> Computing MBIS Charges <==

  Electron Count from Grid (Expected Number):  8.00000 ( 8.00000)
  Difference:  0.00000

  MBIS Charges: (a.u.)
   Center  Symbol  Z      Pop.       Charge
      1       C    6    6.793321   -0.793321
      2       H    1    1.206679   -0.206679

  MBIS Dipoles: [e a0]
   Center  Symbol  Z        X           Y           Z
      1       C    6    0.000000   -0.000000    0.206148
      2       H    1    0.000000    0.000000   -0.018490

  MBIS Quadrupoles: [e a0^2]
   Center  Symbol  Z      XX        XY        XZ        YY        YZ        ZZ
      1       C    6   -6.8882    0.0000    0.0000   -6.8882    0.0000   -6.9632
      2       H    1   -1.3138    0.0000   -0.0000   -1.3138    0.0000   -1.3812

  MBIS Octupoles: [e a0^3]
   Center  Symbol  Z      XXX       XXY       XXZ       XYY       XYZ       XZZ       YYY       YYZ       YZZ       ZZZ
      1       C    6    0.0000   -0.0000    0.1750   -0.0000   -0.0000    0.0000   -0.0000    0.1750   -0.0000   -0.6852
      2       H    1   -0.0000    0.0000   -0.1143   -0.0000   -0.0000   -0.0000    0.0000   -0.1143    0.0000   -0.2173

  MBIS Radial Moments:
   Center  Symbol  Z      [a0^2]      [a0^3]      [a0^4]
      1       C    6   20.739600   58.366975   194.034845
      2       H    1    4.008742   10.558940   32.878677

  MBIS Valence Widths: [a0]
   Center  Symbol  Z     Width
      1       C    6    0.588240
      2       H    1    0.523744

*** tstop() called on Mac.lan at Sun Aug 10 17:36:15 2025
Module time:
	user time   =       3.50 seconds =       0.06 minutes
	system time =       1.46 seconds =       0.02 minutes
	total time  =          1 seconds =       0.02 minutes
Total time:
	user time   =      14.33 seconds =       0.24 minutes
	system time =       3.72 seconds =       0.06 minutes
	total time  =          2 seconds =       0.03 minutes

    Psi4 stopped on: Sunday, 10 August 2025 05:36PM
    Psi4 wall time for execution: 0:00:01.76

*** Psi4 exiting successfully. Buy a developer a beer!
