                               Psi4 1.9.1 release

  ==> Input File <==

--------------------------------------------------------------------------
molecule {
-1 1
N           0.000000           0.000000           0.000000
C           0.000000           0.000000           0.547052
}

set {
basis              cc-pvtz
reference          uks
maxiter            500
DAMPING_PERCENTAGE 1
E_CONVERGENCE      1.0E-8
D_CONVERGENCE      1.0E-8
DIIS_MAX_VECS      400
MBIS_MAXITER       8000
guess              read
}

E, wfn = energy('b3lyp', restart_file='last_wfn', return_wfn=True)
properties('b3lyp','MBIS_CHARGES', wfn=wfn)
wfn.to_file('last_wfn')
--------------------------------------------------------------------------

    Molecular point group: c2v
  Charge       = -1
  Multiplicity = 1
  Basis Set: CC-PVTZ
    Blend: CC-PVTZ
  Basis Set: (CC-PVTZ AUX)
    Blend: CC-PVTZ-JKFIT
  @DF-UKS Final Energy:   -88.84102711984545
    Total Energy =                        -88.8410271198454495
 Dipole X            :          0.0000000            0.0000000            0.0000000
 Dipole Y            :          0.0000000            0.0000000            0.0000000
 Dipole Z            :         -0.5079084            0.0007333           -0.5071751
 Magnitude           :                                                    0.5071751
    Molecular point group: c2v

    Geometry (in Angstrom), charge = -1, multiplicity = 1:

       Center              X                  Y                   Z               Mass
    ------------   -----------------  -----------------  -----------------  -----------------
         N            0.000000000000     0.000000000000    -0.252455690388    14.003074004430
         C            0.000000000000     0.000000000000     0.294596309612    12.000000000000

  Charge       = -1
  Multiplicity = 1
  Basis Set: CC-PVTZ
    Blend: CC-PVTZ
  Basis Set: (CC-PVTZ AUX)
    Blend: CC-PVTZ-JKFIT

    Orbital Energies [Eh]
    ---------------------

    Alpha Occupied:

       1A1   -14.185493     2A1   -10.093532     3A1    -0.462494
       1B1    -0.361434     1B2    -0.361434     4A1     0.061727
       5A1     0.134230

    Alpha Virtual:

       2B2     0.405760     2B1     0.405760     6A1     0.424682
       7A1     0.536833     3B2     0.604440     3B1     0.604440
       8A1     0.791037     9A1     0.952231     1A2     0.952231
       4B2     0.976495     4B1     0.976495    10A1     1.221375
       5B2     1.479157     5B1     1.479157    11A1     1.533933
       2A2     1.638870    12A1     1.638870     6B1     1.669403
       6B2     1.669403    13A1     1.848779    14A1     2.469164
       7B1     2.527187     7B2     2.527187     8B2     2.983673
       8B1     2.983673    15A1     3.179614     3A2     3.179614
      16A1     3.190978     9B2     3.369571     9B1     3.369571
      17A1     3.500654    18A1     3.505273     4A2     3.505273
      10B2     3.849772    10B1     3.849772    19A1     4.466585
      11B1     4.691567    11B2     4.691567    12B1     4.744173
      12B2     4.744173     5A2     4.842873    20A1     4.842873
      21A1     5.354319    13B2     6.327349    13B1     6.327349
      22A1     6.387938     6A2     6.704019    23A1     6.704020
      24A1     7.148312    14B2     8.064196    14B1     8.064196
      25A1     9.857691    26A1    23.246819

    Beta Occupied:

       1A1   -14.185493     2A1   -10.093532     3A1    -0.462494
       1B1    -0.361434     1B2    -0.361434     4A1     0.061727
       5A1     0.134230

    Beta Virtual:

       2B2     0.405760     2B1     0.405760     6A1     0.424682
       7A1     0.536833     3B2     0.604440     3B1     0.604440
       8A1     0.791037     9A1     0.952231     1A2     0.952231
       4B2     0.976495     4B1     0.976495    10A1     1.221375
       5B2     1.479157     5B1     1.479157    11A1     1.533933
       2A2     1.638870    12A1     1.638870     6B1     1.669403
       6B2     1.669403    13A1     1.848779    14A1     2.469164
       7B1     2.527187     7B2     2.527187     8B2     2.983673
       8B1     2.983673    15A1     3.179614     3A2     3.179614
      16A1     3.190978     9B2     3.369571     9B1     3.369571
      17A1     3.500654    18A1     3.505273     4A2     3.505273
      10B2     3.849772    10B1     3.849772    19A1     4.466585
      11B1     4.691567    11B2     4.691567    12B1     4.744173
      12B2     4.744173     5A2     4.842873    20A1     4.842873
      21A1     5.354319    13B2     6.327349    13B1     6.327349
      22A1     6.387938     6A2     6.704019    23A1     6.704020
      24A1     7.148312    14B2     8.064196    14B1     8.064196
      25A1     9.857691    26A1    23.246819

    Final Occupation by Irrep:
             A1    A2    B1    B2
    DOCC [     5,    0,    1,    1 ]
    SOCC [     0,    0,    0,    0 ]
    NA   [     5,    0,    1,    1 ]
    NB   [     5,    0,    1,    1 ]

  @DF-UKS Final Energy:   -88.84102712230968

   => Energetics <=

    Nuclear Repulsion Energy =             40.6276603469871205
    One-Electron Energy =                -200.4622921588975544
    Two-Electron Energy =                  82.0597713758461396
    DFT Exchange-Correlation Energy =     -11.0661666862453831
    Empirical Dispersion Energy =           0.0000000000000000
    VV10 Nonlocal Energy =                  0.0000000000000000
    Total Energy =                        -88.8410271223096828

  UHF NO Occupations:
  HONO-2 :    4 A1 2.0000000
  HONO-1 :    5 A1 2.0000000
  HONO-0 :    1 B2 2.0000000
  LUNO+0 :    6 A1 0.0000000
  LUNO+1 :    7 A1 0.0000000
  LUNO+2 :    8 A1 0.0000000
  LUNO+3 :    9 A1 0.0000000

Computation Completed

Properties will be evaluated at   0.000000,   0.000000,   0.000000 [a0]

Properties computed using the B3LYP density matrix

 Multipole Moments:

 ------------------------------------------------------------------------------------
     Multipole            Electronic (a.u.)      Nuclear  (a.u.)        Total (a.u.)
 ------------------------------------------------------------------------------------

 L = 1.  Multiply by 2.5417464519 to convert [e a0] to [Debye]
 Dipole X            :          0.0000000            0.0000000            0.0000000
 Dipole Y            :          0.0000000            0.0000000            0.0000000
 Dipole Z            :         -0.5079084            0.0007333           -0.5071751
 Magnitude           :                                                    0.5071751

 L = 2.  Multiply by 1.3450342976 to convert [e a0^2] to [Debye ang]
 Quadrupole XX       :         -8.1561465            0.0000000           -8.1561465
 Quadrupole XY       :          0.0000000            0.0000000            0.0000000
 Quadrupole XZ       :          0.0000000            0.0000000            0.0000000
 Quadrupole YY       :         -8.1561465            0.0000000           -8.1561465
 Quadrupole YZ       :          0.0000000            0.0000000            0.0000000
 Quadrupole ZZ       :        -16.6173305            3.4527163          -13.1646142
 Traceless XX        :          2.8203947           -1.1509054            1.6694892
 Traceless YY        :          2.8203947           -1.1509054            1.6694892
 Traceless ZZ        :         -5.6407893            2.3018109           -3.3389784

 ------------------------------------------------------------------------------------
  ==> Computing MBIS Charges <==

  Electron Count from Grid (Expected Number): 14.00000 (14.00000)
  Difference:  0.00000

  MBIS Charges: (a.u.)
   Center  Symbol  Z      Pop.       Charge
      1       N    7    7.293991   -0.293991
      2       C    6    6.706009   -0.706009

  MBIS Dipoles: [e a0]
   Center  Symbol  Z        X           Y           Z
      1       N    7   -0.000000   -0.000000    0.152996
      2       C    6    0.000000   -0.000000   -0.407385

  MBIS Quadrupoles: [e a0^2]
   Center  Symbol  Z      XX        XY        XZ        YY        YZ        ZZ
      1       N    7   -3.1273    0.0000   -0.0000   -3.1273    0.0000   -4.3091
      2       C    6   -5.0288    0.0000    0.0000   -5.0288    0.0000   -7.9703

  MBIS Octupoles: [e a0^3]
   Center  Symbol  Z      XXX       XXY       XXZ       XYY       XYZ       XZZ       YYY       YYZ       YZZ       ZZZ
      1       N    7   -0.0000   -0.0000    0.3751   -0.0000   -0.0000    0.0000   -0.0000    0.3751    0.0000    1.7227
      2       C    6   -0.0000   -0.0000   -1.0513   -0.0000    0.0000    0.0000   -0.0000   -1.0513    0.0000   -1.8713

  MBIS Radial Moments:
   Center  Symbol  Z      [a0^2]      [a0^3]      [a0^4]
      1       N    7   10.563739   20.902465   50.415406
      2       C    6   18.027881   50.322624   166.723833

  MBIS Valence Widths: [a0]
   Center  Symbol  Z     Width
      1       N    7    0.389716
      2       C    6    0.545515

*** tstop() called on Mac.lan at Sun Aug 10 17:39:55 2025
Module time:
	user time   =       4.32 seconds =       0.07 minutes
	system time =       3.32 seconds =       0.06 minutes
	total time  =          0 seconds =       0.00 minutes
Total time:
	user time   =      17.84 seconds =       0.30 minutes
	system time =       5.32 seconds =       0.09 minutes
	total time  =          2 seconds =       0.03 minutes

    Psi4 stopped on: Sunday, 10 August 2025 05:39PM
    Psi4 wall time for execution: 0:00:02.25

*** Psi4 exiting successfully. Buy a developer a beer!
