                               Psi4 1.9.1 release

  ==> Input File <==

--------------------------------------------------------------------------
molecule {
-1 2
C           0.000000           0.000000           0.000000
C           0.000000           0.000000           0.705187
}

set {
basis              cc-pvtz
reference          uks
maxiter            500
DAMPING_PERCENTAGE 1
E_CONVERGENCE      1.0E-8
D_CONVERGENCE      1.0E-8
DIIS_MAX_VECS      400
MBIS_MAXITER       8000
guess              read
}

E, wfn = energy('b3lyp', restart_file='last_wfn', return_wfn=True)
properties('b3lyp','MBIS_CHARGES', wfn=wfn)
wfn.to_file('last_wfn')
--------------------------------------------------------------------------

    Molecular point group: d2h
  Charge       = -1
  Multiplicity = 2
  Basis Set: CC-PVTZ
    Blend: CC-PVTZ
  Basis Set: (CC-PVTZ AUX)
    Blend: CC-PVTZ-JKFIT
  @DF-UKS Final Energy:   -74.54316635020442
    Total Energy =                        -74.5431663502044159
 Dipole X            :          0.0000000            0.0000000            0.0000000
 Dipole Y            :          0.0000000            0.0000000            0.0000000
 Dipole Z            :          0.0000000           -0.0000000           -0.0000000
 Magnitude           :                                                    0.0000000
    Molecular point group: d2h

    Geometry (in Angstrom), charge = -1, multiplicity = 2:

       Center              X                  Y                   Z               Mass
    ------------   -----------------  -----------------  -----------------  -----------------
         C            0.000000000000     0.000000000000    -0.352593500000    12.000000000000
         C            0.000000000000     0.000000000000     0.352593500000    12.000000000000

  Charge       = -1
  Multiplicity = 2
  Basis Set: CC-PVTZ
    Blend: CC-PVTZ
  Basis Set: (CC-PVTZ AUX)
    Blend: CC-PVTZ-JKFIT

    Orbital Energies [Eh]
    ---------------------

    Alpha Occupied:

       1Ag    -9.994969     1B1u   -9.812882     2Ag    -0.427312
       1B3u   -0.163883     1B2u   -0.163883     2B1u    0.013438
       3Ag     0.014170

    Alpha Virtual:

       3B1u    0.406689     1B2g    0.422576     1B3g    0.422576
       2B3u    0.471082     2B2u    0.471082     4Ag     0.477088
       5Ag     0.685357     2B2g    0.807239     2B3g    0.807239
       1B1g    0.905033     6Ag     0.905033     4B1u    0.947473
       3B2u    1.238838     3B3u    1.238838     1Au     1.267827
       5B1u    1.267827     6B1u    1.284099     7Ag     1.334402
       3B3g    1.522305     3B2g    1.522305     4B2u    1.984259
       4B3u    1.984259     8Ag     2.474628     7B1u    2.738040
       5B3u    2.794406     5B2u    2.794406     2B1g    2.843652
       9Ag     2.843653     4B3g    2.876454     4B2g    2.876454
       8B1u    3.052688     6B3u    3.100662     6B2u    3.100662
       2Au     3.180583     9B1u    3.180583    10Ag     3.380452
       3B1g    3.560508    11Ag     3.560508     5B3g    3.571162
       5B2g    3.571162     6B3g    3.598222     6B2g    3.598222
      12Ag     3.894299    10B1u    4.343047     7B3u    4.963794
       7B2u    4.963794     3Au     5.078918    11B1u    5.078918
      13Ag     5.527803     7B2g    6.325688     7B3g    6.325688
      12B1u    7.469728    13B1u   20.872965

    Beta Occupied:

       1Ag    -9.973028     1B1u   -9.796013     2Ag    -0.384245
       1B3u   -0.148866     1B2u   -0.148866     2B1u    0.068105

    Beta Virtual:

       3Ag     0.171053     3B1u    0.419573     1B2g    0.429571
       1B3g    0.429571     2B3u    0.477407     2B2u    0.477407
       4Ag     0.503757     5Ag     0.708151     2B2g    0.821887
       2B3g    0.821887     1B1g    0.905965     6Ag     0.905965
       4B1u    0.967883     3B2u    1.258450     3B3u    1.258450
       1Au     1.273472     5B1u    1.273472     6B1u    1.304642
       7Ag     1.374734     3B3g    1.535386     3B2g    1.535386
       4B2u    1.998234     4B3u    1.998234     8Ag     2.508576
       5B3u    2.793806     5B2u    2.793806     7B1u    2.797982
       2B1g    2.852067     9Ag     2.852068     4B3g    2.887890
       4B2g    2.887890     8B1u    3.081090     6B3u    3.148988
       6B2u    3.148988     2Au     3.196966     9B1u    3.196966
      10Ag     3.421334     5B3g    3.573369     5B2g    3.573369
       3B1g    3.577860    11Ag     3.577861     6B3g    3.632083
       6B2g    3.632083    12Ag     3.927948    10B1u    4.372658
       7B3u    4.992706     7B2u    4.992706     3Au     5.086272
      11B1u    5.086273    13Ag     5.574082     7B2g    6.350860
       7B3g    6.350860    12B1u    7.527644    13B1u   20.893306

    Final Occupation by Irrep:
             Ag   B1g   B2g   B3g    Au   B1u   B2u   B3u
    DOCC [     2,    0,    0,    0,    0,    2,    1,    1 ]
    SOCC [     1,    0,    0,    0,    0,    0,    0,    0 ]
    NA   [     3,    0,    0,    0,    0,    2,    1,    1 ]
    NB   [     2,    0,    0,    0,    0,    2,    1,    1 ]

  @DF-UKS Final Energy:   -74.54316635001500

   => Energetics <=

    Nuclear Repulsion Energy =             27.0146494250744880
    One-Electron Energy =                -155.4253134262973219
    Two-Electron Energy =                  63.2854837711078844
    DFT Exchange-Correlation Energy =      -9.4179861199000374
    Empirical Dispersion Energy =           0.0000000000000000
    VV10 Nonlocal Energy =                  0.0000000000000000
    Total Energy =                        -74.5431663500149853

  UHF NO Occupations:
  HONO-2 :    2 Ag 1.9995186
  HONO-1 :    2B1u 1.9978743
  HONO-0 :    3 Ag 1.0000000
  LUNO+0 :    3B1u 0.0021257
  LUNO+1 :    4 Ag 0.0004814
  LUNO+2 :    2B3u 0.0000796
  LUNO+3 :    2B2u 0.0000796

Computation Completed

Properties will be evaluated at   0.000000,   0.000000,   0.000000 [a0]

Properties computed using the B3LYP density matrix

 Multipole Moments:

 ------------------------------------------------------------------------------------
     Multipole            Electronic (a.u.)      Nuclear  (a.u.)        Total (a.u.)
 ------------------------------------------------------------------------------------

 L = 1.  Multiply by 2.5417464519 to convert [e a0] to [Debye]
 Dipole X            :          0.0000000            0.0000000            0.0000000
 Dipole Y            :          0.0000000            0.0000000            0.0000000
 Dipole Z            :          0.0000000           -0.0000000           -0.0000000
 Magnitude           :                                                    0.0000000

 L = 2.  Multiply by 1.3450342976 to convert [e a0^2] to [Debye ang]
 Quadrupole XX       :         -9.2155889            0.0000000           -9.2155889
 Quadrupole XY       :          0.0000000            0.0000000            0.0000000
 Quadrupole XZ       :          0.0000000            0.0000000            0.0000000
 Quadrupole YY       :         -9.2155889            0.0000000           -9.2155889
 Quadrupole YZ       :          0.0000000            0.0000000            0.0000000
 Quadrupole ZZ       :        -18.8518902            5.3275506          -13.5243396
 Traceless XX        :          3.2121004           -1.7758502            1.4362502
 Traceless YY        :          3.2121004           -1.7758502            1.4362502
 Traceless ZZ        :         -6.4242009            3.5517004           -2.8725005

 ------------------------------------------------------------------------------------
  ==> Computing MBIS Charges <==

  Electron Count from Grid (Expected Number): 13.00000 (13.00000)
  Difference:  0.00000

  MBIS Charges: (a.u.)
   Center  Symbol  Z      Pop.       Charge
      1       C    6    6.500001   -0.500001
      2       C    6    6.500001   -0.500001

  MBIS Dipoles: [e a0]
   Center  Symbol  Z        X           Y           Z
      1       C    6   -0.000000    0.000000    0.195043
      2       C    6   -0.000000    0.000000   -0.195043

  MBIS Quadrupoles: [e a0^2]
   Center  Symbol  Z      XX        XY        XZ        YY        YZ        ZZ
      1       C    6   -4.6078    0.0000    0.0000   -4.6078   -0.0000   -6.2803
      2       C    6   -4.6078    0.0000   -0.0000   -4.6078    0.0000   -6.2803

  MBIS Octupoles: [e a0^3]
   Center  Symbol  Z      XXX       XXY       XXZ       XYY       XYZ       XZZ       YYY       YYZ       YZZ       ZZZ
      1       C    6   -0.0000   -0.0000    0.7466   -0.0000    0.0000   -0.0000    0.0000    0.7466    0.0000    2.8972
      2       C    6   -0.0000   -0.0000   -0.7466   -0.0000   -0.0000   -0.0000    0.0000   -0.7466    0.0000   -2.8972

  MBIS Radial Moments:
   Center  Symbol  Z      [a0^2]      [a0^3]      [a0^4]
      1       C    6   15.495862   40.793553   130.911780
      2       C    6   15.495862   40.793553   130.911780

  MBIS Valence Widths: [a0]
   Center  Symbol  Z     Width
      1       C    6    0.512727
      2       C    6    0.512727

*** tstop() called on Mac.lan at Sun Aug 10 17:30:09 2025
Module time:
	user time   =       4.50 seconds =       0.08 minutes
	system time =       1.78 seconds =       0.03 minutes
	total time  =          1 seconds =       0.02 minutes
Total time:
	user time   =      18.16 seconds =       0.30 minutes
	system time =       3.94 seconds =       0.07 minutes
	total time  =          2 seconds =       0.03 minutes

    Psi4 stopped on: Sunday, 10 August 2025 05:30PM
    Psi4 wall time for execution: 0:00:02.15

*** Psi4 exiting successfully. Buy a developer a beer!
