                               Psi4 1.9.1 release

  ==> Input File <==

--------------------------------------------------------------------------
molecule {
-1 2
N           0.000000           0.000000           0.000000
N           0.000000           0.000000           1.587516
}

set {
basis              cc-pvtz
reference          uks
maxiter            500
DAMPING_PERCENTAGE 1
E_CONVERGENCE      1.0E-8
D_CONVERGENCE      1.0E-8
DIIS_MAX_VECS      400
MBIS_MAXITER       8000
guess              read
}

E, wfn = energy('b3lyp', restart_file='last_wfn', return_wfn=True)
properties('b3lyp','MBIS_CHARGES', wfn=wfn)
wfn.to_file('last_wfn')
--------------------------------------------------------------------------

    Molecular point group: d2h
  Charge       = -1
  Multiplicity = 2
  Basis Set: CC-PVTZ
    Blend: CC-PVTZ
  Basis Set: (CC-PVTZ AUX)
    Blend: CC-PVTZ-JKFIT
  @DF-UKS Final Energy:  -109.36348218584888
    Total Energy =                       -109.3634821858488806
 Dipole X            :          0.0000000            0.0000000            0.0000000
 Dipole Y            :          0.0000000            0.0000000            0.0000000
 Dipole Z            :          0.0000000           -0.0000000           -0.0000000
 Magnitude           :                                                    0.0000000
    Molecular point group: d2h

    Geometry (in Angstrom), charge = -1, multiplicity = 2:

       Center              X                  Y                   Z               Mass
    ------------   -----------------  -----------------  -----------------  -----------------
         N            0.000000000000     0.000000000000    -0.793758000000    14.003074004430
         N            0.000000000000     0.000000000000     0.793758000000    14.003074004430

  Charge       = -1
  Multiplicity = 2
  Basis Set: CC-PVTZ
    Blend: CC-PVTZ
  Basis Set: (CC-PVTZ AUX)
    Blend: CC-PVTZ-JKFIT

    Orbital Energies [Eh]
    ---------------------

    Alpha Occupied:

       1Ag   -14.087658     1B1u  -14.087560     2Ag    -0.538692
       2B1u   -0.321875     3Ag    -0.048394     1B3u   -0.047285
       1B2u   -0.015896     1B2g    0.080650

    Alpha Virtual:

       1B3g    0.174983     3B1u    0.368493     4B1u    0.677162
       2B3u    0.708967     2B2u    0.716953     4Ag     0.727306
       2B2g    0.772612     2B3g    0.783740     5Ag     0.818571
       5B1u    1.155208     3B2u    1.220408     3B3u    1.222143
       1B1g    1.223868     6Ag     1.225028     1Au     1.442073
       6B1u    1.443485     7Ag     1.726869     3B2g    1.818322
       3B3g    1.819313     7B1u    1.983006     4B3u    3.024734
       4B2u    3.038227     8Ag     3.072623     4B2g    3.188362
       4B3g    3.201009     8B1u    3.743848     5B2u    3.870514
       5B3u    3.872807     9Ag     3.925053     2B1g    3.953210
      10Ag     3.954500     6B3u    4.139929     6B2u    4.140197
       5B2g    4.212626     5B3g    4.212897     2Au     4.426750
       9B1u    4.428292     3B1g    4.678115    11Ag     4.681387
       6B2g    4.728039     6B3g    4.734738     3Au     4.815040
      10B1u    4.817919     7B3u    4.828373     7B2u    4.836713
      11B1u    4.900958    12Ag     5.229666    12B1u    5.283319
       7B2g    5.415170     7B3g    5.416184    13Ag     5.907219
      13B1u    7.357984

    Beta Occupied:

       1Ag   -14.076286     1B1u  -14.076153     2Ag    -0.511791
       2B1u   -0.284927     3Ag    -0.036341     1B2u   -0.006368
       1B3u    0.025696

    Beta Virtual:

       1B3g    0.187113     1B2g    0.221943     3B1u    0.383494
       4B1u    0.684631     2B2u    0.722169     4Ag     0.735535
       2B3u    0.743692     2B3g    0.789569     2B2g    0.809721
       5Ag     0.824869     5B1u    1.169897     3B2u    1.221211
       3B3u    1.242275     1B1g    1.243650     6Ag     1.243704
       1Au     1.468657     6B1u    1.468856     7Ag     1.739827
       3B3g    1.822156     3B2g    1.844572     7B1u    1.990888
       4B2u    3.046087     4B3u    3.075637     8Ag     3.079429
       4B3g    3.210207     4B2g    3.242300     8B1u    3.757403
       5B2u    3.873841     5B3u    3.899790     9Ag     3.935348
       2B1g    3.973688    10Ag     3.978773     6B2u    4.172858
       6B3u    4.172905     5B3g    4.245918     5B2g    4.245940
       2Au     4.451584     9B1u    4.451625    11Ag     4.725339
       3B1g    4.725427     6B3g    4.739744     6B2g    4.768080
       7B2u    4.841621    10B1u    4.856900     3Au     4.859735
       7B3u    4.871803    11B1u    4.918584    12Ag     5.240134
      12B1u    5.298643     7B3g    5.419073     7B2g    5.445916
      13Ag     5.930914    13B1u    7.373717

    Final Occupation by Irrep:
             Ag   B1g   B2g   B3g    Au   B1u   B2u   B3u
    DOCC [     3,    0,    0,    0,    0,    2,    1,    1 ]
    SOCC [     0,    0,    1,    0,    0,    0,    0,    0 ]
    NA   [     3,    0,    1,    0,    0,    2,    1,    1 ]
    NB   [     3,    0,    0,    0,    0,    2,    1,    1 ]

  @DF-UKS Final Energy:  -109.36348218452149

   => Energetics <=

    Nuclear Repulsion Energy =             16.3334941649911016
    One-Electron Energy =                -185.3600408511152864
    Two-Electron Energy =                  70.7727577644694890
    DFT Exchange-Correlation Energy =     -11.1096932628667879
    Empirical Dispersion Energy =           0.0000000000000000
    VV10 Nonlocal Energy =                  0.0000000000000000
    Total Energy =                       -109.3634821845214873

  UHF NO Occupations:
  HONO-2 :    2B1u 1.9996221
  HONO-1 :    1B3u 1.9980211
  HONO-0 :    1B2g 1.0000000
  LUNO+0 :    2B3u 0.0019789
  LUNO+1 :    3B1u 0.0003779
  LUNO+2 :    4 Ag 0.0002004
  LUNO+3 :    2B2u 0.0000596

Computation Completed

Properties will be evaluated at   0.000000,   0.000000,   0.000000 [a0]

Properties computed using the B3LYP density matrix

 Multipole Moments:

 ------------------------------------------------------------------------------------
     Multipole            Electronic (a.u.)      Nuclear  (a.u.)        Total (a.u.)
 ------------------------------------------------------------------------------------

 L = 1.  Multiply by 2.5417464519 to convert [e a0] to [Debye]
 Dipole X            :          0.0000000            0.0000000            0.0000000
 Dipole Y            :          0.0000000            0.0000000            0.0000000
 Dipole Z            :          0.0000000           -0.0000000           -0.0000000
 Magnitude           :                                                    0.0000000

 L = 2.  Multiply by 1.3450342976 to convert [e a0^2] to [Debye ang]
 Quadrupole XX       :        -10.9112820            0.0000000          -10.9112820
 Quadrupole XY       :          0.0000000            0.0000000            0.0000000
 Quadrupole XZ       :          0.0000000            0.0000000            0.0000000
 Quadrupole YY       :         -9.9130894            0.0000000           -9.9130894
 Quadrupole YZ       :          0.0000000            0.0000000            0.0000000
 Quadrupole ZZ       :        -44.8093494           31.4993797          -13.3099697
 Traceless XX        :         10.9666249          -10.4997932            0.4668317
 Traceless YY        :         11.9648175          -10.4997932            1.4650243
 Traceless ZZ        :        -22.9314424           20.9995864           -1.9318560

 ------------------------------------------------------------------------------------
  ==> Computing MBIS Charges <==

  Electron Count from Grid (Expected Number): 15.00000 (15.00000)
  Difference: -0.00000

  MBIS Charges: (a.u.)
   Center  Symbol  Z      Pop.       Charge
      1       N    7    7.500000   -0.500000
      2       N    7    7.500000   -0.500000

  MBIS Dipoles: [e a0]
   Center  Symbol  Z        X           Y           Z
      1       N    7   -0.000000   -0.000000    0.092206
      2       N    7    0.000000   -0.000000   -0.092206

  MBIS Quadrupoles: [e a0^2]
   Center  Symbol  Z      XX        XY        XZ        YY        YZ        ZZ
      1       N    7   -5.4556   -0.0000    0.0000   -4.9565   -0.0000   -5.2534
      2       N    7   -5.4556   -0.0000   -0.0000   -4.9565    0.0000   -5.2534

  MBIS Octupoles: [e a0^3]
   Center  Symbol  Z      XXX       XXY       XXZ       XYY       XYZ       XZZ       YYY       YYZ       YZZ       ZZZ
      1       N    7   -0.0000   -0.0000    0.0534    0.0000   -0.0000   -0.0000   -0.0000   -0.1183   -0.0000   -0.3026
      2       N    7   -0.0000   -0.0000   -0.0534    0.0000    0.0000   -0.0000   -0.0000    0.1183   -0.0000    0.3026

  MBIS Radial Moments:
   Center  Symbol  Z      [a0^2]      [a0^3]      [a0^4]
      1       N    7   15.665577   35.958391   97.664072
      2       N    7   15.665577   35.958391   97.664072

  MBIS Valence Widths: [a0]
   Center  Symbol  Z     Width
      1       N    7    0.476732
      2       N    7    0.476732

*** tstop() called on Mac.lan at Sun Aug 10 17:34:07 2025
Module time:
	user time   =       4.12 seconds =       0.07 minutes
	system time =       1.72 seconds =       0.03 minutes
	total time  =          0 seconds =       0.00 minutes
Total time:
	user time   =      17.19 seconds =       0.29 minutes
	system time =       3.91 seconds =       0.07 minutes
	total time  =          2 seconds =       0.03 minutes

    Psi4 stopped on: Sunday, 10 August 2025 05:34PM
    Psi4 wall time for execution: 0:00:02.06

*** Psi4 exiting successfully. Buy a developer a beer!
