                               Psi4 1.9.1 release

  ==> Input File <==

--------------------------------------------------------------------------
molecule {
-1 2
O           0.000000           0.000000           0.000000
O           0.000000           0.000000           1.044635
}

set {
basis              cc-pvtz
reference          uks
maxiter            500
DAMPING_PERCENTAGE 1
E_CONVERGENCE      1.0E-8
D_CONVERGENCE      1.0E-8
DIIS_MAX_VECS      400
MBIS_MAXITER       8000
guess              read
}

E, wfn = energy('b3lyp', restart_file='last_wfn', return_wfn=True)
properties('b3lyp','MBIS_CHARGES', wfn=wfn)
wfn.to_file('last_wfn')
--------------------------------------------------------------------------

    Molecular point group: d2h
  Charge       = -1
  Multiplicity = 2
  Basis Set: CC-PVTZ
    Blend: CC-PVTZ
  Basis Set: (CC-PVTZ AUX)
    Blend: CC-PVTZ-JKFIT
  @DF-UKS Final Energy:  -150.23394429261086
    Total Energy =                       -150.2339442926108575
 Dipole X            :          0.0000000            0.0000000            0.0000000
 Dipole Y            :          0.0000000            0.0000000            0.0000000
 Dipole Z            :          0.0000000            0.0000000            0.0000000
 Magnitude           :                                                    0.0000000
    Molecular point group: d2h

    Geometry (in Angstrom), charge = -1, multiplicity = 2:

       Center              X                  Y                   Z               Mass
    ------------   -----------------  -----------------  -----------------  -----------------
         O            0.000000000000     0.000000000000    -0.522317500000    15.994914619570
         O            0.000000000000     0.000000000000     0.522317500000    15.994914619570

  Charge       = -1
  Multiplicity = 2
  Basis Set: CC-PVTZ
    Blend: CC-PVTZ
  Basis Set: (CC-PVTZ AUX)
    Blend: CC-PVTZ-JKFIT

    Orbital Energies [Eh]
    ---------------------

    Alpha Occupied:

       1Ag   -18.789391     1B1u  -18.788594     2Ag    -1.005241
       2B1u   -0.349913     1B2u   -0.209571     1B3u   -0.170191
       3Ag    -0.151489     1B3g    0.175585     1B2g    0.216942

    Alpha Virtual:

       3B1u    0.618013     2B2u    0.810791     2B3u    0.832074
       4Ag     0.843027     2B3g    0.946490     2B2g    0.968209
       5Ag     1.027162     4B1u    1.092795     5B1u    1.504270
       1B1g    1.566914     6Ag     1.567191     3B2u    1.792033
       3B3u    1.820509     1Au     2.075157     6B1u    2.075305
       7Ag     2.577415     3B3g    2.615564     3B2g    2.641748
       7B1u    2.654573     4B2u    3.836236     4B3u    3.872005
       8Ag     4.106558     4B3g    4.220113     4B2g    4.257744
       2B1g    4.940527     8B1u    4.940795     9Ag     4.940811
       5B2u    5.134728     5B3u    5.162965     6B2u    5.206447
       6B3u    5.207078    10Ag     5.607834     5B3g    5.676581
       5B2g    5.676595     9B1u    6.199595     3B1g    6.457015
      11Ag     6.457047     2Au     6.493490    10B1u    6.493643
       6B3g    6.676438     6B2g    6.708282     3Au     6.721107
      11B1u    6.721951     7B2u    7.047611     7B3u    7.081627
      12Ag     7.437621    12B1u    7.682152     7B3g    8.287910
      13Ag     8.309463     7B2g    8.319119    13B1u   17.615678

    Beta Occupied:

       1Ag   -18.775645     1B1u  -18.774761     2Ag    -0.982265
       2B1u   -0.308630     1B3u   -0.158883     1B2u   -0.131894
       3Ag    -0.130363     1B2g    0.231576

    Beta Virtual:

       1B3g    0.340968     3B1u    0.626718     2B3u    0.836456
       2B2u    0.839124     4Ag     0.848100     2B2g    0.975029
       2B3g    0.992179     5Ag     1.039239     4B1u    1.113393
       5B1u    1.521527     1B1g    1.586125     6Ag     1.587263
       3B3u    1.823131     3B2u    1.824430     1Au     2.105983
       6B1u    2.107581     7Ag     2.590494     3B2g    2.646097
       3B3g    2.649727     7B1u    2.666742     4B3u    3.882818
       4B2u    3.897348     8Ag     4.118241     4B2g    4.268992
       4B3g    4.280137     2B1g    4.957662     9Ag     4.958698
       8B1u    4.960967     5B2u    5.163687     5B3u    5.168007
       6B3u    5.237216     6B2u    5.237479    10Ag     5.622006
       5B2g    5.712261     5B3g    5.712522     9B1u    6.218895
       3B1g    6.505805    11Ag     6.509044     2Au     6.528535
      10B1u    6.530688     6B2g    6.714007     6B3g    6.722706
       3Au     6.759263    11B1u    6.761806     7B3u    7.087191
       7B2u    7.091683    12Ag     7.465343    12B1u    7.697677
      13Ag     8.321634     7B3g    8.322787     7B2g    8.323733
      13B1u   17.635961

    Final Occupation by Irrep:
             Ag   B1g   B2g   B3g    Au   B1u   B2u   B3u
    DOCC [     3,    0,    1,    0,    0,    2,    1,    1 ]
    SOCC [     0,    0,    0,    1,    0,    0,    0,    0 ]
    NA   [     3,    0,    1,    1,    0,    2,    1,    1 ]
    NB   [     3,    0,    1,    0,    0,    2,    1,    1 ]

  @DF-UKS Final Energy:  -150.23394429212874

   => Energetics <=

    Nuclear Repulsion Energy =             32.4202630420003359
    One-Electron Energy =                -276.9845728853335345
    Two-Electron Energy =                 108.5748528943826727
    DFT Exchange-Correlation Energy =     -14.2444873431781929
    Empirical Dispersion Energy =           0.0000000000000000
    VV10 Nonlocal Energy =                  0.0000000000000000
    Total Energy =                       -150.2339442921287400

  UHF NO Occupations:
  HONO-2 :    2B1u 1.9997368
  HONO-1 :    1B2u 1.9992231
  HONO-0 :    1B3g 1.0000000
  LUNO+0 :    2B2u 0.0007769
  LUNO+1 :    3B1u 0.0002632
  LUNO+2 :    4 Ag 0.0001333
  LUNO+3 :    2B2g 0.0000587

Computation Completed

Properties will be evaluated at   0.000000,   0.000000,   0.000000 [a0]

Properties computed using the B3LYP density matrix

 Multipole Moments:

 ------------------------------------------------------------------------------------
     Multipole            Electronic (a.u.)      Nuclear  (a.u.)        Total (a.u.)
 ------------------------------------------------------------------------------------

 L = 1.  Multiply by 2.5417464519 to convert [e a0] to [Debye]
 Dipole X            :          0.0000000            0.0000000            0.0000000
 Dipole Y            :          0.0000000            0.0000000            0.0000000
 Dipole Z            :          0.0000000            0.0000000            0.0000000
 Magnitude           :                                                    0.0000000

 L = 2.  Multiply by 1.3450342976 to convert [e a0^2] to [Debye ang]
 Quadrupole XX       :         -9.3208412            0.0000000           -9.3208412
 Quadrupole XY       :          0.0000000            0.0000000            0.0000000
 Quadrupole XZ       :          0.0000000            0.0000000            0.0000000
 Quadrupole YY       :         -8.4267977            0.0000000           -8.4267977
 Quadrupole YZ       :          0.0000000            0.0000000            0.0000000
 Quadrupole ZZ       :        -26.8909719           15.5878734          -11.3030984
 Traceless XX        :          5.5586957           -5.1959578            0.3627379
 Traceless YY        :          6.4527392           -5.1959578            1.2567814
 Traceless ZZ        :        -12.0114350           10.3919156           -1.6195193

 ------------------------------------------------------------------------------------
  ==> Computing MBIS Charges <==

  Electron Count from Grid (Expected Number): 17.00000 (17.00000)
  Difference:  0.00000

  MBIS Charges: (a.u.)
   Center  Symbol  Z      Pop.       Charge
      1       O    8    8.500000   -0.500000
      2       O    8    8.500000   -0.500000

  MBIS Dipoles: [e a0]
   Center  Symbol  Z        X           Y           Z
      1       O    8   -0.000000   -0.000000    0.329413
      2       O    8    0.000000   -0.000000   -0.329413

  MBIS Quadrupoles: [e a0^2]
   Center  Symbol  Z      XX        XY        XZ        YY        YZ        ZZ
      1       O    8   -4.6604   -0.0000    0.0000   -4.2134   -0.0000   -4.5141
      2       O    8   -4.6604   -0.0000   -0.0000   -4.2134    0.0000   -4.5141

  MBIS Octupoles: [e a0^3]
   Center  Symbol  Z      XXX       XXY       XXZ       XYY       XYZ       XZZ       YYY       YYZ       YZZ       ZZZ
      1       O    8   -0.0000   -0.0000    0.6182    0.0000   -0.0000   -0.0000   -0.0000    0.4216    0.0000    0.1733
      2       O    8   -0.0000   -0.0000   -0.6182    0.0000    0.0000   -0.0000   -0.0000   -0.4216   -0.0000   -0.1733

  MBIS Radial Moments:
   Center  Symbol  Z      [a0^2]      [a0^3]      [a0^4]
      1       O    8   13.387962   26.802776   64.248214
      2       O    8   13.387962   26.802776   64.248214

  MBIS Valence Widths: [a0]
   Center  Symbol  Z     Width
      1       O    8    0.403580
      2       O    8    0.403580

*** tstop() called on Mac.lan at Sun Aug 10 17:27:17 2025
Module time:
	user time   =       4.90 seconds =       0.08 minutes
	system time =       1.24 seconds =       0.02 minutes
	total time  =          1 seconds =       0.02 minutes
Total time:
	user time   =      19.97 seconds =       0.33 minutes
	system time =       3.45 seconds =       0.06 minutes
	total time  =          3 seconds =       0.05 minutes

    Psi4 stopped on: Sunday, 10 August 2025 05:27PM
    Psi4 wall time for execution: 0:00:02.29

*** Psi4 exiting successfully. Buy a developer a beer!
