                               Psi4 1.9.1 release

  ==> Input File <==

--------------------------------------------------------------------------
molecule {
-1 1
N           0.000000           0.000000           0.000000
C           0.000000           0.000000           0.904188
}

set {
basis              cc-pvtz
reference          uks
maxiter            500
DAMPING_PERCENTAGE 1
E_CONVERGENCE      1.0E-8
D_CONVERGENCE      1.0E-8
DIIS_MAX_VECS      400
MBIS_MAXITER       8000
guess              read
}

E, wfn = energy('b3lyp', restart_file='last_wfn', return_wfn=True)
properties('b3lyp','MBIS_CHARGES', wfn=wfn)
wfn.to_file('last_wfn')
--------------------------------------------------------------------------

    Molecular point group: c2v
  Charge       = -1
  Multiplicity = 1
  Basis Set: CC-PVTZ
    Blend: CC-PVTZ
  Basis Set: (CC-PVTZ AUX)
    Blend: CC-PVTZ-JKFIT
  @DF-UKS Final Energy:   -92.61549590556318
    Total Energy =                        -92.6154959055631792
 Dipole X            :          0.0000000            0.0000000            0.0000000
 Dipole Y            :          0.0000000            0.0000000            0.0000000
 Dipole Z            :         -0.3915656            0.0012120           -0.3903537
 Magnitude           :                                                    0.3903537
    Molecular point group: c2v

    Geometry (in Angstrom), charge = -1, multiplicity = 1:

       Center              X                  Y                   Z               Mass
    ------------   -----------------  -----------------  -----------------  -----------------
         N            0.000000000000     0.000000000000    -0.417268204450    14.003074004430
         C            0.000000000000     0.000000000000     0.486919795550    12.000000000000

  Charge       = -1
  Multiplicity = 1
  Basis Set: CC-PVTZ
    Blend: CC-PVTZ
  Basis Set: (CC-PVTZ AUX)
    Blend: CC-PVTZ-JKFIT

    Orbital Energies [Eh]
    ---------------------

    Alpha Occupied:

       1A1   -13.932684     2A1    -9.784119     3A1    -0.664499
       1B1    -0.114544     1B2    -0.114544     4A1    -0.081494
       5A1     0.000817

    Alpha Virtual:

       2B1     0.394076     2B2     0.394076     6A1     0.422137
       7A1     0.560910     3B2     0.575762     3B1     0.575762
       8A1     0.721688     4B2     0.818534     4B1     0.818534
       9A1     0.946625     1A2     0.946625    10A1     1.145277
       5B1     1.272126     5B2     1.272126    11A1     1.311325
      12A1     1.547939     2A2     1.547939     6B1     1.867003
       6B2     1.867003    13A1     1.882571     7B1     2.265324
       7B2     2.265324    14A1     2.442637    15A1     2.746087
       8B1     2.974126     8B2     2.974126    16A1     3.173795
       3A2     3.173795    17A1     3.210222     9B2     3.296604
       9B1     3.296604     4A2     3.355896    18A1     3.355897
      10B2     3.556478    10B1     3.556478    19A1     3.699454
      11B1     3.965454    11B2     3.965454    12B1     4.382767
      12B2     4.382767    20A1     4.872863     5A2     4.872865
      21A1     4.894339    13B2     5.327643    13B1     5.327643
      22A1     5.340571     6A2     5.340571    23A1     5.807867
      24A1     6.197345    14B1     6.612333    14B2     6.612333
      25A1     8.045238    26A1    16.964638

    Beta Occupied:

       1A1   -13.932684     2A1    -9.784119     3A1    -0.664499
       1B1    -0.114544     1B2    -0.114544     4A1    -0.081494
       5A1     0.000817

    Beta Virtual:

       2B1     0.394076     2B2     0.394076     6A1     0.422137
       7A1     0.560910     3B2     0.575762     3B1     0.575762
       8A1     0.721688     4B2     0.818534     4B1     0.818534
       9A1     0.946625     1A2     0.946625    10A1     1.145277
       5B1     1.272126     5B2     1.272126    11A1     1.311325
      12A1     1.547939     2A2     1.547939     6B1     1.867003
       6B2     1.867003    13A1     1.882571     7B1     2.265324
       7B2     2.265324    14A1     2.442637    15A1     2.746087
       8B1     2.974126     8B2     2.974126    16A1     3.173795
       3A2     3.173795    17A1     3.210222     9B2     3.296604
       9B1     3.296604     4A2     3.355896    18A1     3.355897
      10B2     3.556478    10B1     3.556478    19A1     3.699454
      11B1     3.965454    11B2     3.965454    12B1     4.382767
      12B2     4.382767    20A1     4.872863     5A2     4.872865
      21A1     4.894339    13B2     5.327643    13B1     5.327643
      22A1     5.340571     6A2     5.340571    23A1     5.807867
      24A1     6.197345    14B1     6.612333    14B2     6.612333
      25A1     8.045238    26A1    16.964638

    Final Occupation by Irrep:
             A1    A2    B1    B2
    DOCC [     5,    0,    1,    1 ]
    SOCC [     0,    0,    0,    0 ]
    NA   [     5,    0,    1,    1 ]
    NB   [     5,    0,    1,    1 ]

  @DF-UKS Final Energy:   -92.61549590526903

   => Energetics <=

    Nuclear Repulsion Energy =             24.5805549820833740
    One-Electron Energy =                -177.5437897029770227
    Two-Electron Energy =                  70.7298340723067156
    DFT Exchange-Correlation Energy =     -10.3820952566820992
    Empirical Dispersion Energy =           0.0000000000000000
    VV10 Nonlocal Energy =                  0.0000000000000000
    Total Energy =                        -92.6154959052690288

  UHF NO Occupations:
  HONO-2 :    1 B2 2.0000000
  HONO-1 :    4 A1 2.0000000
  HONO-0 :    5 A1 2.0000000
  LUNO+0 :    6 A1 0.0000000
  LUNO+1 :    7 A1 0.0000000
  LUNO+2 :    8 A1 0.0000000
  LUNO+3 :    9 A1 0.0000000

Computation Completed

Properties will be evaluated at   0.000000,   0.000000,   0.000000 [a0]

Properties computed using the B3LYP density matrix

 Multipole Moments:

 ------------------------------------------------------------------------------------
     Multipole            Electronic (a.u.)      Nuclear  (a.u.)        Total (a.u.)
 ------------------------------------------------------------------------------------

 L = 1.  Multiply by 2.5417464519 to convert [e a0] to [Debye]
 Dipole X            :          0.0000000            0.0000000            0.0000000
 Dipole Y            :          0.0000000            0.0000000            0.0000000
 Dipole Z            :         -0.3915656            0.0012120           -0.3903537
 Magnitude           :                                                    0.3903537

 L = 2.  Multiply by 1.3450342976 to convert [e a0^2] to [Debye ang]
 Quadrupole XX       :         -9.5926721            0.0000000           -9.5926721
 Quadrupole XY       :          0.0000000            0.0000000            0.0000000
 Quadrupole XZ       :          0.0000000            0.0000000            0.0000000
 Quadrupole YY       :         -9.5926721            0.0000000           -9.5926721
 Quadrupole YZ       :          0.0000000            0.0000000            0.0000000
 Quadrupole ZZ       :        -22.5209067            9.4323771          -13.0885295
 Traceless XX        :          4.3094115           -3.1441257            1.1652858
 Traceless YY        :          4.3094115           -3.1441257            1.1652858
 Traceless ZZ        :         -8.6188231            6.2882514           -2.3305716

 ------------------------------------------------------------------------------------
  ==> Computing MBIS Charges <==

  Electron Count from Grid (Expected Number): 14.00000 (14.00000)
  Difference: -0.00000

  MBIS Charges: (a.u.)
   Center  Symbol  Z      Pop.       Charge
      1       N    7    7.426797   -0.426797
      2       C    6    6.573202   -0.573202

  MBIS Dipoles: [e a0]
   Center  Symbol  Z        X           Y           Z
      1       N    7   -0.000000   -0.000000    0.108266
      2       C    6   -0.000000    0.000000   -0.307730

  MBIS Quadrupoles: [e a0^2]
   Center  Symbol  Z      XX        XY        XZ        YY        YZ        ZZ
      1       N    7   -4.2298   -0.0000   -0.0000   -4.2298    0.0000   -5.0050
      2       C    6   -5.3629    0.0000   -0.0000   -5.3629    0.0000   -6.5958

  MBIS Octupoles: [e a0^3]
   Center  Symbol  Z      XXX       XXY       XXZ       XYY       XYZ       XZZ       YYY       YYZ       YZZ       ZZZ
      1       N    7   -0.0000    0.0000    0.2759   -0.0000   -0.0000    0.0000   -0.0000    0.2759    0.0000    0.8784
      2       C    6   -0.0000   -0.0000   -0.6280   -0.0000   -0.0000   -0.0000    0.0000   -0.6280    0.0000   -1.5506

  MBIS Radial Moments:
   Center  Symbol  Z      [a0^2]      [a0^3]      [a0^4]
      1       N    7   13.464592   29.242010   76.278726
      2       C    6   17.321548   45.990648   144.357288

  MBIS Valence Widths: [a0]
   Center  Symbol  Z     Width
      1       N    7    0.440508
      2       C    6    0.545347

*** tstop() called on Mac.lan at Sun Aug 10 17:39:21 2025
Module time:
	user time   =       7.65 seconds =       0.13 minutes
	system time =       2.39 seconds =       0.04 minutes
	total time  =          1 seconds =       0.02 minutes
Total time:
	user time   =      20.50 seconds =       0.34 minutes
	system time =       4.81 seconds =       0.08 minutes
	total time  =          3 seconds =       0.05 minutes

    Psi4 stopped on: Sunday, 10 August 2025 05:39PM
    Psi4 wall time for execution: 0:00:02.47

*** Psi4 exiting successfully. Buy a developer a beer!
