                               Psi4 1.9.1 release

  ==> Input File <==

--------------------------------------------------------------------------
molecule {
-1 2
H           0.000000           0.000000           0.000000
H           0.000000           0.000000           1.308563
}

set {
basis              cc-pvtz
reference          uks
maxiter            500
DAMPING_PERCENTAGE 1
E_CONVERGENCE      1.0E-8
D_CONVERGENCE      1.0E-8
DIIS_MAX_VECS      400
MBIS_MAXITER       8000
guess              read
}

E, wfn = energy('b3lyp', restart_file='last_wfn', return_wfn=True)
properties('b3lyp','MBIS_CHARGES', wfn=wfn)
wfn.to_file('last_wfn')
--------------------------------------------------------------------------

    Molecular point group: d2h
  Charge       = -1
  Multiplicity = 2
  Basis Set: CC-PVTZ
    Blend: CC-PVTZ
  Basis Set: (CC-PVTZ AUX)
    Blend: CC-PVTZ-JKFIT
  @DF-UKS Final Energy:    -1.05789989834503
    Total Energy =                         -1.0578998983450276
 Dipole X            :          0.0000000            0.0000000            0.0000000
 Dipole Y            :          0.0000000            0.0000000            0.0000000
 Dipole Z            :          0.0000000            0.0000000            0.0000000
 Magnitude           :                                                    0.0000000
    Molecular point group: d2h

    Geometry (in Angstrom), charge = -1, multiplicity = 2:

       Center              X                  Y                   Z               Mass
    ------------   -----------------  -----------------  -----------------  -----------------
         H            0.000000000000     0.000000000000    -0.654281500000     1.007825032230
         H            0.000000000000     0.000000000000     0.654281500000     1.007825032230

  Charge       = -1
  Multiplicity = 2
  Basis Set: CC-PVTZ
    Blend: CC-PVTZ
  Basis Set: (CC-PVTZ AUX)
    Blend: CC-PVTZ-JKFIT

    Orbital Energies [Eh]
    ---------------------

    Alpha Occupied:

       1Ag    -0.052979     1B1u    0.145239

    Alpha Virtual:

       2Ag     0.483297     2B1u    0.565100     1B2u    0.797492
       1B3u    0.797492     3Ag     0.992821     1B2g    1.084974
       1B3g    1.084974     3B1u    1.487899     4Ag     2.566091
       4B1u    2.703642     2B2u    3.165617     2B3u    3.165617
       5Ag     3.187987     1B1g    3.387168     6Ag     3.387168
       1Au     3.648071     5B1u    3.648072     3B3u    3.901565
       3B2u    3.901565     2B3g    3.945018     2B2g    3.945018
       6B1u    4.087690     3B2g    4.321636     3B3g    4.321636
       7Ag     4.482278     7B1u    5.536799

    Beta Occupied:

       1Ag    -0.005931

    Beta Virtual:

       1B1u    0.250550     2Ag     0.503365     2B1u    0.615872
       1B2u    0.817980     1B3u    0.817980     3Ag     1.035013
       1B2g    1.125801     1B3g    1.125801     3B1u    1.531448
       4Ag     2.624393     4B1u    2.760239     2B2u    3.194099
       2B3u    3.194099     5Ag     3.211781     1B1g    3.422271
       6Ag     3.422272     1Au     3.687051     5B1u    3.687052
       3B3u    3.953456     3B2u    3.953456     2B3g    3.991594
       2B2g    3.991594     6B1u    4.145366     3B2g    4.366250
       3B3g    4.366250     7Ag     4.535034     7B1u    5.573930

    Final Occupation by Irrep:
             Ag   B1g   B2g   B3g    Au   B1u   B2u   B3u
    DOCC [     1,    0,    0,    0,    0,    0,    0,    0 ]
    SOCC [     0,    0,    0,    0,    0,    1,    0,    0 ]
    NA   [     1,    0,    0,    0,    0,    1,    0,    0 ]
    NB   [     1,    0,    0,    0,    0,    0,    0,    0 ]

  @DF-UKS Final Energy:    -1.05789989850310

   => Energetics <=

    Nuclear Repulsion Energy =              0.4043956696544226
    One-Electron Energy =                  -2.5210832150497176
    Two-Electron Energy =                   1.7340066298991896
    DFT Exchange-Correlation Energy =      -0.6752189830069993
    Empirical Dispersion Energy =           0.0000000000000000
    VV10 Nonlocal Energy =                  0.0000000000000000
    Total Energy =                         -1.0578998985031047

  UHF NO Occupations:
  HONO-1 :    1 Ag 1.9987736
  HONO-0 :    1B1u 1.0000000
  LUNO+0 :    2 Ag 0.0012264
  LUNO+1 :    2B1u 0.0000000
  LUNO+2 :    3 Ag 0.0000000
  LUNO+3 :    3B1u 0.0000000

Computation Completed

Properties will be evaluated at   0.000000,   0.000000,   0.000000 [a0]

Properties computed using the B3LYP density matrix

 Multipole Moments:

 ------------------------------------------------------------------------------------
     Multipole            Electronic (a.u.)      Nuclear  (a.u.)        Total (a.u.)
 ------------------------------------------------------------------------------------

 L = 1.  Multiply by 2.5417464519 to convert [e a0] to [Debye]
 Dipole X            :          0.0000000            0.0000000            0.0000000
 Dipole Y            :          0.0000000            0.0000000            0.0000000
 Dipole Z            :          0.0000000            0.0000000            0.0000000
 Magnitude           :                                                    0.0000000

 L = 2.  Multiply by 1.3450342976 to convert [e a0^2] to [Debye ang]
 Quadrupole XX       :         -4.3308986            0.0000000           -4.3308986
 Quadrupole XY       :          0.0000000            0.0000000            0.0000000
 Quadrupole XZ       :          0.0000000            0.0000000            0.0000000
 Quadrupole YY       :         -4.3308986            0.0000000           -4.3308986
 Quadrupole YZ       :          0.0000000            0.0000000            0.0000000
 Quadrupole ZZ       :        -10.8794264            3.0574334           -7.8219930
 Traceless XX        :          2.1828426           -1.0191445            1.1636981
 Traceless YY        :          2.1828426           -1.0191445            1.1636981
 Traceless ZZ        :         -4.3656852            2.0382890           -2.3273962

 ------------------------------------------------------------------------------------
  ==> Computing MBIS Charges <==

  Electron Count from Grid (Expected Number):  3.00000 ( 3.00000)
  Difference:  0.00000

  MBIS Charges: (a.u.)
   Center  Symbol  Z      Pop.       Charge
      1       H    1    1.500000   -0.500000
      2       H    1    1.500000   -0.500000

  MBIS Dipoles: [e a0]
   Center  Symbol  Z        X           Y           Z
      1       H    1    0.000000    0.000000    0.216501
      2       H    1    0.000000   -0.000000   -0.216501

  MBIS Quadrupoles: [e a0^2]
   Center  Symbol  Z      XX        XY        XZ        YY        YZ        ZZ
      1       H    1   -2.1654   -0.0000    0.0000   -2.1654    0.0000   -2.6113
      2       H    1   -2.1654   -0.0000    0.0000   -2.1654    0.0000   -2.6113

  MBIS Octupoles: [e a0^3]
   Center  Symbol  Z      XXX       XXY       XXZ       XYY       XYZ       XZZ       YYY       YYZ       YZZ       ZZZ
      1       H    1    0.0000   -0.0000    0.4982   -0.0000    0.0000   -0.0000    0.0000    0.4982   -0.0000    0.8561
      2       H    1    0.0000   -0.0000   -0.4982    0.0000   -0.0000    0.0000   -0.0000   -0.4982    0.0000   -0.8561

  MBIS Radial Moments:
   Center  Symbol  Z      [a0^2]      [a0^3]      [a0^4]
      1       H    1    6.942169   21.201321   75.319210
      2       H    1    6.942169   21.201321   75.319210

  MBIS Valence Widths: [a0]
   Center  Symbol  Z     Width
      1       H    1    0.619649
      2       H    1    0.619649

*** tstop() called on Mac.lan at Sun Aug 10 17:26:21 2025
Module time:
	user time   =       0.48 seconds =       0.01 minutes
	system time =       1.34 seconds =       0.02 minutes
	total time  =          0 seconds =       0.00 minutes
Total time:
	user time   =       1.59 seconds =       0.03 minutes
	system time =       3.47 seconds =       0.06 minutes
	total time  =          0 seconds =       0.00 minutes

    Psi4 stopped on: Sunday, 10 August 2025 05:26PM
    Psi4 wall time for execution: 0:00:00.82

*** Psi4 exiting successfully. Buy a developer a beer!
