                               Psi4 1.9.1 release

  ==> Input File <==

--------------------------------------------------------------------------
molecule {
-1 2
H           0.000000           0.000000           0.000000
H           0.000000           0.000000           0.680405
}

set {
basis              cc-pvtz
reference          uks
maxiter            500
DAMPING_PERCENTAGE 1
E_CONVERGENCE      1.0E-8
D_CONVERGENCE      1.0E-8
DIIS_MAX_VECS      400
MBIS_MAXITER       8000
guess              read
}

E, wfn = energy('b3lyp', restart_file='last_wfn', return_wfn=True)
properties('b3lyp','MBIS_CHARGES', wfn=wfn)
wfn.to_file('last_wfn')
--------------------------------------------------------------------------

    Molecular point group: d2h
  Charge       = -1
  Multiplicity = 2
  Basis Set: CC-PVTZ
    Blend: CC-PVTZ
  Basis Set: (CC-PVTZ AUX)
    Blend: CC-PVTZ-JKFIT
  @DF-UKS Final Energy:    -1.03321028334253
    Total Energy =                         -1.0332102833425321
 Dipole X            :          0.0000000            0.0000000            0.0000000
 Dipole Y            :          0.0000000            0.0000000            0.0000000
 Dipole Z            :          0.0000000            0.0000000            0.0000000
 Magnitude           :                                                    0.0000000
    Molecular point group: d2h

    Geometry (in Angstrom), charge = -1, multiplicity = 2:

       Center              X                  Y                   Z               Mass
    ------------   -----------------  -----------------  -----------------  -----------------
         H            0.000000000000     0.000000000000    -0.340202500000     1.007825032230
         H            0.000000000000     0.000000000000     0.340202500000     1.007825032230

  Charge       = -1
  Multiplicity = 2
  Basis Set: CC-PVTZ
    Blend: CC-PVTZ
  Basis Set: (CC-PVTZ AUX)
    Blend: CC-PVTZ-JKFIT

    Orbital Energies [Eh]
    ---------------------

    Alpha Occupied:

       1Ag    -0.155729     1B1u    0.226359

    Alpha Virtual:

       2Ag     0.411527     2B1u    0.741584     1B2u    0.805374
       1B3u    0.805374     3Ag     1.195888     1B2g    1.218710
       1B3g    1.218710     3B1u    1.650353     4Ag     2.346436
       4B1u    2.349907     5Ag     3.190166     1B1g    3.190166
       2B3u    3.410466     2B2u    3.410466     6Ag     3.674004
       2B2g    3.840012     2B3g    3.840012     5B1u    4.156584
       1Au     4.156584     3B3u    4.171482     3B2u    4.171482
       6B1u    4.841716     3B2g    5.940021     3B3g    5.940021
       7Ag     6.010169     7B1u    7.195498

    Beta Occupied:

       1Ag    -0.141894

    Beta Virtual:

       1B1u    0.321464     2Ag     0.431761     2B1u    0.773587
       1B2u    0.809349     1B3u    0.809349     3Ag     1.234440
       1B2g    1.242423     1B3g    1.242423     3B1u    1.674863
       4Ag     2.350784     4B1u    2.376190     5Ag     3.192290
       1B1g    3.192290     2B3u    3.410688     2B2u    3.410688
       6Ag     3.703393     2B2g    3.863392     2B3g    3.863392
       5B1u    4.167344     1Au     4.167344     3B3u    4.190255
       3B2u    4.190255     6B1u    4.865070     3B2g    5.952102
       3B3g    5.952102     7Ag     6.023816     7B1u    7.209403

    Final Occupation by Irrep:
             Ag   B1g   B2g   B3g    Au   B1u   B2u   B3u
    DOCC [     1,    0,    0,    0,    0,    0,    0,    0 ]
    SOCC [     0,    0,    0,    0,    0,    1,    0,    0 ]
    NA   [     1,    0,    0,    0,    0,    1,    0,    0 ]
    NB   [     1,    0,    0,    0,    0,    0,    0,    0 ]

  @DF-UKS Final Energy:    -1.03321028370097

   => Energetics <=

    Nuclear Repulsion Energy =              0.7777385684555522
    One-Electron Energy =                  -3.0150385623235834
    Two-Electron Energy =                   1.9446652402647113
    DFT Exchange-Correlation Energy =      -0.7405755300976532
    Empirical Dispersion Energy =           0.0000000000000000
    VV10 Nonlocal Energy =                  0.0000000000000000
    Total Energy =                         -1.0332102837009729

  UHF NO Occupations:
  HONO-1 :    1 Ag 1.9996992
  HONO-0 :    1B1u 1.0000000
  LUNO+0 :    2 Ag 0.0003008
  LUNO+1 :    2B1u 0.0000000
  LUNO+2 :    3 Ag 0.0000000
  LUNO+3 :    4 Ag 0.0000000

Computation Completed

Properties will be evaluated at   0.000000,   0.000000,   0.000000 [a0]

Properties computed using the B3LYP density matrix

 Multipole Moments:

 ------------------------------------------------------------------------------------
     Multipole            Electronic (a.u.)      Nuclear  (a.u.)        Total (a.u.)
 ------------------------------------------------------------------------------------

 L = 1.  Multiply by 2.5417464519 to convert [e a0] to [Debye]
 Dipole X            :          0.0000000            0.0000000            0.0000000
 Dipole Y            :          0.0000000            0.0000000            0.0000000
 Dipole Z            :          0.0000000            0.0000000            0.0000000
 Magnitude           :                                                    0.0000000

 L = 2.  Multiply by 1.3450342976 to convert [e a0^2] to [Debye ang]
 Quadrupole XX       :         -4.1450043            0.0000000           -4.1450043
 Quadrupole XY       :          0.0000000            0.0000000            0.0000000
 Quadrupole XZ       :          0.0000000            0.0000000            0.0000000
 Quadrupole YY       :         -4.1450043            0.0000000           -4.1450043
 Quadrupole YZ       :          0.0000000            0.0000000            0.0000000
 Quadrupole ZZ       :         -9.9155324            0.8266140           -9.0889185
 Traceless XX        :          1.9235094           -0.2755380            1.6479714
 Traceless YY        :          1.9235094           -0.2755380            1.6479714
 Traceless ZZ        :         -3.8470187            0.5510760           -3.2959428

 ------------------------------------------------------------------------------------
  ==> Computing MBIS Charges <==

  Electron Count from Grid (Expected Number):  3.00000 ( 3.00000)
  Difference: -0.00000

  MBIS Charges: (a.u.)
   Center  Symbol  Z      Pop.       Charge
      1       H    1    1.500000   -0.500000
      2       H    1    1.500000   -0.500000

  MBIS Dipoles: [e a0]
   Center  Symbol  Z        X           Y           Z
      1       H    1   -0.000000    0.000000    0.323170
      2       H    1    0.000000   -0.000000   -0.323170

  MBIS Quadrupoles: [e a0^2]
   Center  Symbol  Z      XX        XY        XZ        YY        YZ        ZZ
      1       H    1   -2.0725    0.0000    0.0000   -2.0725    0.0000   -3.9223
      2       H    1   -2.0725    0.0000    0.0000   -2.0725   -0.0000   -3.9223

  MBIS Octupoles: [e a0^3]
   Center  Symbol  Z      XXX       XXY       XXZ       XYY       XYZ       XZZ       YYY       YYZ       YZZ       ZZZ
      1       H    1   -0.0000   -0.0000    0.9077   -0.0000   -0.0000    0.0000   -0.0000    0.9077   -0.0000    2.0416
      2       H    1    0.0000   -0.0000   -0.9077   -0.0000    0.0000    0.0000   -0.0000   -0.9077   -0.0000   -2.0416

  MBIS Radial Moments:
   Center  Symbol  Z      [a0^2]      [a0^3]      [a0^4]
      1       H    1    8.067285   27.635430   108.995129
      2       H    1    8.067285   27.635430   108.995129

  MBIS Valence Widths: [a0]
   Center  Symbol  Z     Width
      1       H    1    0.650295
      2       H    1    0.650295

*** tstop() called on Mac.lan at Sun Aug 10 17:25:56 2025
Module time:
	user time   =       1.26 seconds =       0.02 minutes
	system time =       0.51 seconds =       0.01 minutes
	total time  =          1 seconds =       0.02 minutes
Total time:
	user time   =       2.82 seconds =       0.05 minutes
	system time =       2.15 seconds =       0.04 minutes
	total time  =          1 seconds =       0.02 minutes

    Psi4 stopped on: Sunday, 10 August 2025 05:25PM
    Psi4 wall time for execution: 0:00:00.82

*** Psi4 exiting successfully. Buy a developer a beer!
