                               Psi4 1.9.1 release

  ==> Input File <==

--------------------------------------------------------------------------
molecule {
-1 2
O           0.000000           0.000000           0.000000
C           0.000000           0.000000           0.915662
}

set {
basis              cc-pvtz
reference          uks
maxiter            500
DAMPING_PERCENTAGE 1
E_CONVERGENCE      1.0E-8
D_CONVERGENCE      1.0E-8
DIIS_MAX_VECS      400
MBIS_MAXITER       8000
guess              read
}

E, wfn = energy('b3lyp', restart_file='last_wfn', return_wfn=True)
properties('b3lyp','MBIS_CHARGES', wfn=wfn)
wfn.to_file('last_wfn')
--------------------------------------------------------------------------

    Molecular point group: c2v
  Charge       = -1
  Multiplicity = 2
  Basis Set: CC-PVTZ
    Blend: CC-PVTZ
  Basis Set: (CC-PVTZ AUX)
    Blend: CC-PVTZ-JKFIT
  @DF-UKS Final Energy:  -113.02288500052812
    Total Energy =                       -113.0228850005281203
 Dipole X            :          0.0000000            0.0000000            0.0000000
 Dipole Y            :          0.0000000            0.0000000            0.0000000
 Dipole Z            :         -1.3416470           -0.0018859           -1.3435329
 Magnitude           :                                                    1.3435329
    Molecular point group: c2v

    Geometry (in Angstrom), charge = -1, multiplicity = 2:

       Center              X                  Y                   Z               Mass
    ------------   -----------------  -----------------  -----------------  -----------------
         O            0.000000000000     0.000000000000    -0.392497857176    15.994914619570
         C            0.000000000000     0.000000000000     0.523164142824    12.000000000000

  Charge       = -1
  Multiplicity = 2
  Basis Set: CC-PVTZ
    Blend: CC-PVTZ
  Basis Set: (CC-PVTZ AUX)
    Blend: CC-PVTZ-JKFIT

    Orbital Energies [Eh]
    ---------------------

    Alpha Occupied:

       1A1   -18.860537     2A1    -9.870861     3A1    -0.946169
       4A1    -0.267222     1B1    -0.251467     1B2    -0.242740
       5A1    -0.045053     2B1     0.270383

    Alpha Virtual:

       2B2     0.341337     6A1     0.403874     3B1     0.558314
       7A1     0.562997     3B2     0.565260     8A1     0.797078
       4B1     0.861482     4B2     0.866139     1A2     0.928857
       9A1     0.931184    10A1     1.091403     5B1     1.246960
       5B2     1.249582    11A1     1.487355     2A2     1.860436
      12A1     1.861406    13A1     1.996116     6B2     2.123911
       6B1     2.125431    14A1     2.240741     7B1     2.374931
       7B2     2.377675     8B1     2.961455     8B2     2.961587
      15A1     2.978378     3A2     3.220428    16A1     3.221771
       4A2     3.330607    17A1     3.331711     9B1     3.336496
       9B2     3.336876    18A1     3.408159    10B1     3.818633
      10B2     3.822102    19A1     4.068573    11B2     4.563987
      11B1     4.566013    12B1     5.442680    12B2     5.442710
      20A1     5.553279     5A2     6.178534    21A1     6.179019
      22A1     6.569571     6A2     6.576960    23A1     6.578034
      13B1     6.859996    13B2     6.860575    24A1     7.286656
      14B2     7.316312    14B1     7.316578    25A1     8.862321
      26A1    15.519245

    Beta Occupied:

       1A1   -18.852995     2A1    -9.867623     3A1    -0.936045
       4A1    -0.253680     1B2    -0.237753     1B1    -0.214404
       5A1    -0.022448

    Beta Virtual:

       2B2     0.350780     2B1     0.375519     6A1     0.409479
       3B2     0.568816     7A1     0.578319     3B1     0.588401
       8A1     0.803818     4B2     0.869360     4B1     0.884429
       9A1     0.952608     1A2     0.952615    10A1     1.102252
       5B2     1.252002     5B1     1.275761    11A1     1.493717
       2A2     1.876406    12A1     1.876461    13A1     2.003346
       6B2     2.127092     6B1     2.147606    14A1     2.256148
       7B2     2.380272     7B1     2.398321     8B2     2.982379
       8B1     2.982424    15A1     2.985390     3A2     3.240705
      16A1     3.240736     9B2     3.336565    17A1     3.344606
       4A2     3.346226     9B1     3.359130    18A1     3.416792
      10B2     3.826200    10B1     3.847779    19A1     4.075148
      11B2     4.566885    11B1     4.587191    12B2     5.458512
      12B1     5.458516    20A1     5.561989     5A2     6.192050
      21A1     6.192120    22A1     6.574976     6A2     6.601530
      23A1     6.601945    13B2     6.863601    13B1     6.881850
      24A1     7.294628    14B2     7.318979    14B1     7.337903
      25A1     8.871807    26A1    15.529288

    Final Occupation by Irrep:
             A1    A2    B1    B2
    DOCC [     5,    0,    1,    1 ]
    SOCC [     0,    0,    1,    0 ]
    NA   [     5,    0,    2,    1 ]
    NB   [     5,    0,    1,    1 ]

  @DF-UKS Final Energy:  -113.02288500045177

   => Energetics <=

    Nuclear Repulsion Energy =             27.7400461219969827
    One-Electron Energy =                -212.5212667313336397
    Two-Electron Energy =                  83.4592928209200267
    DFT Exchange-Correlation Energy =     -11.7009572120351297
    Empirical Dispersion Energy =           0.0000000000000000
    VV10 Nonlocal Energy =                  0.0000000000000000
    Total Energy =                       -113.0228850004517653

  UHF NO Occupations:
  HONO-2 :    1 B1 1.9998203
  HONO-1 :    5 A1 1.9995869
  HONO-0 :    2 B1 1.0000000
  LUNO+0 :    6 A1 0.0004131
  LUNO+1 :    3 B1 0.0001797
  LUNO+2 :    7 A1 0.0000440
  LUNO+3 :    2 B2 0.0000094

Computation Completed

Properties will be evaluated at   0.000000,   0.000000,   0.000000 [a0]

Properties computed using the B3LYP density matrix

 Multipole Moments:

 ------------------------------------------------------------------------------------
     Multipole            Electronic (a.u.)      Nuclear  (a.u.)        Total (a.u.)
 ------------------------------------------------------------------------------------

 L = 1.  Multiply by 2.5417464519 to convert [e a0] to [Debye]
 Dipole X            :          0.0000000            0.0000000            0.0000000
 Dipole Y            :          0.0000000            0.0000000            0.0000000
 Dipole Z            :         -1.3416470           -0.0018859           -1.3435329
 Magnitude           :                                                    1.3435329

 L = 2.  Multiply by 1.3450342976 to convert [e a0^2] to [Debye ang]
 Quadrupole XX       :        -12.3737698            0.0000000          -12.3737698
 Quadrupole XY       :          0.0000000            0.0000000            0.0000000
 Quadrupole XZ       :          0.0000000            0.0000000            0.0000000
 Quadrupole YY       :         -9.3710035            0.0000000           -9.3710035
 Quadrupole YZ       :          0.0000000            0.0000000            0.0000000
 Quadrupole ZZ       :        -23.4507796           10.2655289          -13.1852507
 Traceless XX        :          2.6914145           -3.4218430           -0.7304285
 Traceless YY        :          5.6941808           -3.4218430            2.2723378
 Traceless ZZ        :         -8.3855953            6.8436859           -1.5419094

 ------------------------------------------------------------------------------------
  ==> Computing MBIS Charges <==

  Electron Count from Grid (Expected Number): 15.00000 (15.00000)
  Difference: -0.00000

  MBIS Charges: (a.u.)
   Center  Symbol  Z      Pop.       Charge
      1       O    8    7.991309    0.008691
      2       C    6    7.008690   -1.008690

  MBIS Dipoles: [e a0]
   Center  Symbol  Z        X           Y           Z
      1       O    8   -0.000000   -0.000000    0.047187
      2       C    6   -0.000000    0.000000   -0.387046

  MBIS Quadrupoles: [e a0^2]
   Center  Symbol  Z      XX        XY        XZ        YY        YZ        ZZ
      1       O    8   -3.2700   -0.0000   -0.0000   -3.0798   -0.0000   -3.6234
      2       C    6   -9.1038    0.0000   -0.0000   -6.2912    0.0000   -7.7454

  MBIS Octupoles: [e a0^3]
   Center  Symbol  Z      XXX       XXY       XXZ       XYY       XYZ       XZZ       YYY       YYZ       YZZ       ZZZ
      1       O    8    0.0000   -0.0000    0.0576   -0.0000   -0.0000   -0.0000   -0.0000    0.1245   -0.0000    0.2819
      2       C    6   -0.0000   -0.0000   -2.4464   -0.0000    0.0000   -0.0000    0.0000   -0.7369    0.0000   -0.6154

  MBIS Radial Moments:
   Center  Symbol  Z      [a0^2]      [a0^3]      [a0^4]
      1       O    8    9.973196   17.534589   37.223705
      2       C    6   23.140416   68.315492   235.422794

  MBIS Valence Widths: [a0]
   Center  Symbol  Z     Width
      1       O    8    0.361672
      2       C    6    0.606692

*** tstop() called on Mac.lan at Sun Aug 10 17:42:02 2025
Module time:
	user time   =       3.71 seconds =       0.06 minutes
	system time =       2.19 seconds =       0.04 minutes
	total time  =          1 seconds =       0.02 minutes
Total time:
	user time   =      18.74 seconds =       0.31 minutes
	system time =       4.45 seconds =       0.07 minutes
	total time  =          2 seconds =       0.03 minutes

    Psi4 stopped on: Sunday, 10 August 2025 05:42PM
    Psi4 wall time for execution: 0:00:02.24

*** Psi4 exiting successfully. Buy a developer a beer!
