                               Psi4 1.9.1 release

  ==> Input File <==

--------------------------------------------------------------------------
molecule {
-1 1
O           0.000000           0.000000           0.000000
H           0.000000           0.000000           1.411012
}

set {
basis              cc-pvtz
reference          uks
maxiter            500
DAMPING_PERCENTAGE 1
E_CONVERGENCE      1.0E-8
D_CONVERGENCE      1.0E-8
DIIS_MAX_VECS      400
MBIS_MAXITER       8000
guess              read
}

E, wfn = energy('b3lyp', restart_file='last_wfn', return_wfn=True)
properties('b3lyp','MBIS_CHARGES', wfn=wfn)
wfn.to_file('last_wfn')
--------------------------------------------------------------------------

    Molecular point group: c2v
  Charge       = -1
  Multiplicity = 1
  Basis Set: CC-PVTZ
    Blend: CC-PVTZ
  Basis Set: (CC-PVTZ AUX)
    Blend: CC-PVTZ-JKFIT
  @DF-UKS Final Energy:   -75.72754655346610
    Total Energy =                        -75.7275465534660981
 Dipole X            :          0.0000000            0.0000000            0.0000000
 Dipole Y            :          0.0000000            0.0000000            0.0000000
 Dipole Z            :         -1.3677682            1.2439719           -0.1237963
 Magnitude           :                                                    0.1237963
    Molecular point group: c2v

    Geometry (in Angstrom), charge = -1, multiplicity = 1:

       Center              X                  Y                   Z               Mass
    ------------   -----------------  -----------------  -----------------  -----------------
         O            0.000000000000     0.000000000000    -0.083636710524    15.994914619570
         H            0.000000000000     0.000000000000     1.327375289476     1.007825032230

  Charge       = -1
  Multiplicity = 1
  Basis Set: CC-PVTZ
    Blend: CC-PVTZ
  Basis Set: (CC-PVTZ AUX)
    Blend: CC-PVTZ-JKFIT

    Orbital Energies [Eh]
    ---------------------

    Alpha Occupied:

       1A1   -18.745744     2A1    -0.494595     3A1    -0.020554
       1B1     0.087291     1B2     0.087291

    Alpha Virtual:

       4A1     0.250097     5A1     0.538214     2B1     0.868854
       2B2     0.868854     6A1     0.899022     3B2     1.012003
       3B1     1.012003     7A1     1.167124     8A1     1.401936
       9A1     1.866411     1A2     1.866411     4B1     1.946446
       4B2     1.946446    10A1     2.336630    11A1     2.701872
       2A2     3.503279    12A1     3.503283    13A1     3.518128
       5B1     3.603469     5B2     3.603469     6B2     3.975314
       6B1     3.975314     7B1     4.064548     7B2     4.064548
      14A1     4.160332    15A1     4.975006    16A1     5.545556
       3A2     5.545556     8B1     5.553928     8B2     5.553928
       9B1     5.772481     9B2     5.772481    17A1     6.160608
       4A2     6.612507    18A1     6.612507    10B2     6.771540
      10B1     6.771540    19A1     7.357884    20A1     7.951344

    Beta Occupied:

       1A1   -18.745744     2A1    -0.494595     3A1    -0.020554
       1B1     0.087291     1B2     0.087291

    Beta Virtual:

       4A1     0.250097     5A1     0.538214     2B1     0.868854
       2B2     0.868854     6A1     0.899022     3B2     1.012003
       3B1     1.012003     7A1     1.167124     8A1     1.401936
       9A1     1.866411     1A2     1.866411     4B1     1.946446
       4B2     1.946446    10A1     2.336630    11A1     2.701872
       2A2     3.503279    12A1     3.503283    13A1     3.518128
       5B1     3.603469     5B2     3.603469     6B2     3.975314
       6B1     3.975314     7B1     4.064548     7B2     4.064548
      14A1     4.160332    15A1     4.975006    16A1     5.545556
       3A2     5.545556     8B1     5.553928     8B2     5.553928
       9B1     5.772481     9B2     5.772481    17A1     6.160608
       4A2     6.612507    18A1     6.612507    10B2     6.771540
      10B1     6.771540    19A1     7.357884    20A1     7.951344

    Final Occupation by Irrep:
             A1    A2    B1    B2
    DOCC [     3,    0,    1,    1 ]
    SOCC [     0,    0,    0,    0 ]
    NA   [     3,    0,    1,    1 ]
    NB   [     3,    0,    1,    1 ]

  @DF-UKS Final Energy:   -75.72754655360693

   => Energetics <=

    Nuclear Repulsion Energy =              3.0002705046874163
    One-Electron Energy =                -114.0056703788124253
    Two-Electron Energy =                  42.6177914368479662
    DFT Exchange-Correlation Energy =      -7.3399381163298880
    Empirical Dispersion Energy =           0.0000000000000000
    VV10 Nonlocal Energy =                  0.0000000000000000
    Total Energy =                        -75.7275465536069277

  UHF NO Occupations:
  HONO-2 :    2 A1 2.0000000
  HONO-1 :    1 B1 2.0000000
  HONO-0 :    3 A1 2.0000000
  LUNO+0 :    4 A1 0.0000000
  LUNO+1 :    2 B2 0.0000000
  LUNO+2 :    5 A1 0.0000000
  LUNO+3 :    6 A1 0.0000000

Computation Completed

Properties will be evaluated at   0.000000,   0.000000,   0.000000 [a0]

Properties computed using the B3LYP density matrix

 Multipole Moments:

 ------------------------------------------------------------------------------------
     Multipole            Electronic (a.u.)      Nuclear  (a.u.)        Total (a.u.)
 ------------------------------------------------------------------------------------

 L = 1.  Multiply by 2.5417464519 to convert [e a0] to [Debye]
 Dipole X            :          0.0000000            0.0000000            0.0000000
 Dipole Y            :          0.0000000            0.0000000            0.0000000
 Dipole Z            :         -1.3677682            1.2439719           -0.1237963
 Magnitude           :                                                    0.1237963

 L = 2.  Multiply by 1.3450342976 to convert [e a0^2] to [Debye ang]
 Quadrupole XX       :         -6.7358106            0.0000000           -6.7358106
 Quadrupole XY       :          0.0000000            0.0000000            0.0000000
 Quadrupole XZ       :          0.0000000            0.0000000            0.0000000
 Quadrupole YY       :         -6.7358106            0.0000000           -6.7358106
 Quadrupole YZ       :          0.0000000            0.0000000            0.0000000
 Quadrupole ZZ       :        -12.8894443            6.4917886           -6.3976557
 Traceless XX        :          2.0512113           -2.1639295           -0.1127183
 Traceless YY        :          2.0512113           -2.1639295           -0.1127183
 Traceless ZZ        :         -4.1024225            4.3278591            0.2254366

 ------------------------------------------------------------------------------------
  ==> Computing MBIS Charges <==

  Electron Count from Grid (Expected Number): 10.00000 (10.00000)
  Difference: -0.00000

  MBIS Charges: (a.u.)
   Center  Symbol  Z      Pop.       Charge
      1       O    8    8.922983   -0.922983
      2       H    1    1.077017   -0.077017

  MBIS Dipoles: [e a0]
   Center  Symbol  Z        X           Y           Z
      1       O    8   -0.000000    0.000000   -0.095703
      2       H    1    0.000000   -0.000000    0.019216

  MBIS Quadrupoles: [e a0^2]
   Center  Symbol  Z      XX        XY        XZ        YY        YZ        ZZ
      1       O    8   -5.5262    0.0000    0.0000   -5.5262    0.0000   -4.8402
      2       H    1   -1.2096    0.0000    0.0000   -1.2096   -0.0000   -1.1765

  MBIS Octupoles: [e a0^3]
   Center  Symbol  Z      XXX       XXY       XXZ       XYY       XYZ       XZZ       YYY       YYZ       YZZ       ZZZ
      1       O    8   -0.0000   -0.0000   -0.2035    0.0000    0.0000    0.0000   -0.0000   -0.2035    0.0000   -0.9840
      2       H    1    0.0000    0.0000    0.0163    0.0000   -0.0000    0.0000    0.0000    0.0163   -0.0000    0.0185

  MBIS Radial Moments:
   Center  Symbol  Z      [a0^2]      [a0^3]      [a0^4]
      1       O    8   15.892558   33.422929   83.445953
      2       H    1    3.595730    9.391684   28.826213

  MBIS Valence Widths: [a0]
   Center  Symbol  Z     Width
      1       O    8    0.428666
      2       H    1    0.526739

*** tstop() called on Mac.lan at Sun Aug 10 17:38:37 2025
Module time:
	user time   =       2.69 seconds =       0.04 minutes
	system time =       1.99 seconds =       0.03 minutes
	total time  =          1 seconds =       0.02 minutes
Total time:
	user time   =      12.45 seconds =       0.21 minutes
	system time =       4.43 seconds =       0.07 minutes
	total time  =          2 seconds =       0.03 minutes

    Psi4 stopped on: Sunday, 10 August 2025 05:38PM
    Psi4 wall time for execution: 0:00:01.65

*** Psi4 exiting successfully. Buy a developer a beer!
