                               Psi4 1.9.1 release

  ==> Input File <==

--------------------------------------------------------------------------
molecule {
-1 3
C           0.000000           0.000000           0.000000
H           0.000000           0.000000           0.456999
}

set {
basis              cc-pvtz
reference          uks
maxiter            500
DAMPING_PERCENTAGE 1
E_CONVERGENCE      1.0E-8
D_CONVERGENCE      1.0E-8
DIIS_MAX_VECS      400
MBIS_MAXITER       8000
guess              read
}

E, wfn = energy('b3lyp', restart_file='last_wfn', return_wfn=True)
properties('b3lyp','MBIS_CHARGES', wfn=wfn)
wfn.to_file('last_wfn')
--------------------------------------------------------------------------

    Molecular point group: c2v
  Charge       = -1
  Multiplicity = 3
  Basis Set: CC-PVTZ
    Blend: CC-PVTZ
  Basis Set: (CC-PVTZ AUX)
    Blend: CC-PVTZ-JKFIT
  @DF-UKS Final Energy:   -37.30361049273813
    Total Energy =                        -37.3036104927381302
 Dipole X            :          0.0000000            0.0000000            0.0000000
 Dipole Y            :          0.0000000            0.0000000            0.0000000
 Dipole Z            :          0.5473495            0.3952291            0.9425787
 Magnitude           :                                                    0.9425787
    Molecular point group: c2v

    Geometry (in Angstrom), charge = -1, multiplicity = 3:

       Center              X                  Y                   Z               Mass
    ------------   -----------------  -----------------  -----------------  -----------------
         C            0.000000000000     0.000000000000    -0.035407535907    12.000000000000
         H            0.000000000000     0.000000000000     0.421591464093     1.007825032230

  Charge       = -1
  Multiplicity = 3
  Basis Set: CC-PVTZ
    Blend: CC-PVTZ
  Basis Set: (CC-PVTZ AUX)
    Blend: CC-PVTZ-JKFIT

    Orbital Energies [Eh]
    ---------------------

    Alpha Occupied:

       1A1    -9.902466     2A1    -0.444493     3A1     0.011990
       1B2     0.087352     1B1     0.087352

    Alpha Virtual:

       4A1     0.294063     5A1     0.515544     2B2     0.566214
       2B1     0.566214     6A1     0.775415     3B2     0.969914
       3B1     0.969914     7A1     0.975060     1A2     0.975060
       8A1     1.038522     9A1     1.358675     4B1     1.509207
       4B2     1.509207    10A1     2.067674     5B1     2.187777
       5B2     2.187777    11A1     2.597149    12A1     2.980574
       2A2     2.980574     6B2     3.010214     6B1     3.010214
      13A1     3.014395     7B2     3.108019     7B1     3.108019
      14A1     3.188299     3A2     3.188299    15A1     3.521373
       8B1     3.606788     8B2     3.606788    16A1     4.867203
       4A2     4.990515    17A1     4.990515     9B1     5.002627
       9B2     5.002627    18A1     5.998578    10B1     7.352466
      10B2     7.352466    19A1    10.329561    20A1    21.489458

    Beta Occupied:

       1A1    -9.877374     2A1    -0.376581     3A1     0.060973

    Beta Virtual:

       1B2     0.247395     1B1     0.247395     4A1     0.302965
       5A1     0.530330     2B2     0.635799     2B1     0.635799
       6A1     0.814522     3B2     1.007029     3B1     1.007029
       1A2     1.050617     7A1     1.050617     8A1     1.065448
       9A1     1.366685     4B1     1.529878     4B2     1.529878
      10A1     2.104879     5B1     2.267531     5B2     2.267531
      11A1     2.633120     2A2     3.038340    12A1     3.038340
      13A1     3.075843     6B2     3.105373     6B1     3.105373
       7B2     3.155724     7B1     3.155724    14A1     3.296312
       3A2     3.296312    15A1     3.547616     8B1     3.648339
       8B2     3.648339    16A1     4.901338     9B1     5.038587
       9B2     5.038587    17A1     5.044696     4A2     5.044697
      18A1     6.030350    10B1     7.391676    10B2     7.391676
      19A1    10.338635    20A1    21.513432

    Final Occupation by Irrep:
             A1    A2    B1    B2
    DOCC [     3,    0,    0,    0 ]
    SOCC [     0,    0,    1,    1 ]
    NA   [     3,    0,    1,    1 ]
    NB   [     3,    0,    0,    0 ]

  @DF-UKS Final Energy:   -37.30361049280926

   => Energetics <=

    Nuclear Repulsion Energy =              6.9476372246328797
    One-Electron Energy =                 -64.4920128465926723
    Two-Electron Energy =                  25.3197757395366168
    DFT Exchange-Correlation Energy =      -5.0790106103860788
    Empirical Dispersion Energy =           0.0000000000000000
    VV10 Nonlocal Energy =                  0.0000000000000000
    Total Energy =                        -37.3036104928092556

  UHF NO Occupations:
  HONO-2 :    3 A1 1.9971776
  HONO-1 :    1 B2 1.0000000
  HONO-0 :    1 B1 1.0000000
  LUNO+0 :    4 A1 0.0028224
  LUNO+1 :    5 A1 0.0001675
  LUNO+2 :    6 A1 0.0000012
  LUNO+3 :    7 A1 0.0000000

Computation Completed

Properties will be evaluated at   0.000000,   0.000000,   0.000000 [a0]

Properties computed using the B3LYP density matrix

 Multipole Moments:

 ------------------------------------------------------------------------------------
     Multipole            Electronic (a.u.)      Nuclear  (a.u.)        Total (a.u.)
 ------------------------------------------------------------------------------------

 L = 1.  Multiply by 2.5417464519 to convert [e a0] to [Debye]
 Dipole X            :          0.0000000            0.0000000            0.0000000
 Dipole Y            :          0.0000000            0.0000000            0.0000000
 Dipole Z            :          0.5473495            0.3952291            0.9425787
 Magnitude           :                                                    0.9425787

 L = 2.  Multiply by 1.3450342976 to convert [e a0^2] to [Debye ang]
 Quadrupole XX       :         -7.5548367            0.0000000           -7.5548367
 Quadrupole XY       :          0.0000000            0.0000000            0.0000000
 Quadrupole XZ       :          0.0000000            0.0000000            0.0000000
 Quadrupole YY       :         -7.5548367            0.0000000           -7.5548367
 Quadrupole YZ       :          0.0000000            0.0000000            0.0000000
 Quadrupole ZZ       :         -8.1808220            0.6615809           -7.5192411
 Traceless XX        :          0.2086618           -0.2205270           -0.0118652
 Traceless YY        :          0.2086618           -0.2205270           -0.0118652
 Traceless ZZ        :         -0.4173235            0.4410539            0.0237304

 ------------------------------------------------------------------------------------
  ==> Computing MBIS Charges <==

  Electron Count from Grid (Expected Number):  8.00000 ( 8.00000)
  Difference: -0.00000

  MBIS Charges: (a.u.)
   Center  Symbol  Z      Pop.       Charge
      1       C    6    7.080190   -1.080190
      2       H    1    0.919810    0.080190

  MBIS Dipoles: [e a0]
   Center  Symbol  Z        X           Y           Z
      1       C    6   -0.000000   -0.000000    0.802439
      2       H    1   -0.000000   -0.000000    0.003977

  MBIS Quadrupoles: [e a0^2]
   Center  Symbol  Z      XX        XY        XZ        YY        YZ        ZZ
      1       C    6   -7.3400    0.0000    0.0000   -7.3400    0.0000   -7.2577
      2       H    1   -0.2149    0.0000   -0.0000   -0.2149   -0.0000   -0.2065

  MBIS Octupoles: [e a0^3]
   Center  Symbol  Z      XXX       XXY       XXZ       XYY       XYZ       XZZ       YYY       YYZ       YZZ       ZZZ
      1       C    6   -0.0000    0.0000    1.7687   -0.0000   -0.0000   -0.0000   -0.0000    1.7687   -0.0000    5.4047
      2       H    1   -0.0000   -0.0000    0.0041   -0.0000    0.0000   -0.0000   -0.0000    0.0041    0.0000    0.0135

  MBIS Radial Moments:
   Center  Symbol  Z      [a0^2]      [a0^3]      [a0^4]
      1       C    6   21.937650   62.327776   208.112771
      2       H    1    0.636280    0.747940    1.056771

  MBIS Valence Widths: [a0]
   Center  Symbol  Z     Width
      1       C    6    0.586568
      2       H    1    0.243181

*** tstop() called on Mac.lan at Sun Aug 10 17:35:36 2025
Module time:
	user time   =       3.05 seconds =       0.05 minutes
	system time =       2.97 seconds =       0.05 minutes
	total time  =          1 seconds =       0.02 minutes
Total time:
	user time   =      13.88 seconds =       0.23 minutes
	system time =       5.22 seconds =       0.09 minutes
	total time  =          2 seconds =       0.03 minutes

    Psi4 stopped on: Sunday, 10 August 2025 05:35PM
    Psi4 wall time for execution: 0:00:01.86

*** Psi4 exiting successfully. Buy a developer a beer!
