                               Psi4 1.9.1 release

  ==> Input File <==

--------------------------------------------------------------------------
molecule {
-1 3
O           0.000000           0.000000           0.000000
N           0.000000           0.000000           0.503711
}

set {
basis              cc-pvtz
reference          uks
maxiter            500
DAMPING_PERCENTAGE 1
E_CONVERGENCE      1.0E-8
D_CONVERGENCE      1.0E-8
DIIS_MAX_VECS      400
MBIS_MAXITER       8000
guess              read
}

E, wfn = energy('b3lyp', restart_file='last_wfn', return_wfn=True)
properties('b3lyp','MBIS_CHARGES', wfn=wfn)
wfn.to_file('last_wfn')
--------------------------------------------------------------------------

    Molecular point group: c2v
  Charge       = -1
  Multiplicity = 3
  Basis Set: CC-PVTZ
    Blend: CC-PVTZ
  Basis Set: (CC-PVTZ AUX)
    Blend: CC-PVTZ-JKFIT
  @DF-UKS Final Energy:  -123.90278600124674
    Total Energy =                       -123.9027860012467386
 Dipole X            :          0.0000000            0.0000000            0.0000000
 Dipole Y            :          0.0000000            0.0000000            0.0000000
 Dipole Z            :         -2.1923692           -0.0019099           -2.1942791
 Magnitude           :                                                    2.1942791
    Molecular point group: c2v

    Geometry (in Angstrom), charge = -1, multiplicity = 3:

       Center              X                  Y                   Z               Mass
    ------------   -----------------  -----------------  -----------------  -----------------
         O            0.000000000000     0.000000000000    -0.235132511658    15.994914619570
         N            0.000000000000     0.000000000000     0.268578488342    14.003074004430

  Charge       = -1
  Multiplicity = 3
  Basis Set: CC-PVTZ
    Blend: CC-PVTZ
  Basis Set: (CC-PVTZ AUX)
    Blend: CC-PVTZ-JKFIT

    Orbital Energies [Eh]
    ---------------------

    Alpha Occupied:

       1A1   -19.318732     2A1   -14.502930     3A1    -1.127612
       1B1    -0.889110     1B2    -0.889110     4A1    -0.385561
       5A1    -0.169827     2B1     0.401810     2B2     0.401810

    Alpha Virtual:

       6A1     0.410293     3B2     0.565290     3B1     0.565290
       7A1     0.634189     8A1     0.783094     4B2     1.055870
       4B1     1.055870     1A2     1.149992     9A1     1.149992
      10A1     1.535284     5B1     1.828150     5B2     1.828150
      11A1     1.868937     2A2     1.996772    12A1     1.996772
       6B1     2.016684     6B2     2.016684    13A1     2.145454
       7B2     3.067240     7B1     3.067240    14A1     3.278720
       8B2     3.951994     8B1     3.951994    15A1     4.031498
       3A2     4.240881    16A1     4.240881     9B1     4.445028
       9B2     4.445028    17A1     4.571404    18A1     4.660608
       4A2     4.660608    10B1     4.853275    10B2     4.853275
      19A1     5.613087    11B2     5.845918    11B1     5.845918
      12B1     5.986843    12B2     5.986843     5A2     6.119212
      20A1     6.119212    21A1     6.953669    13B1     8.149007
      13B2     8.149007    22A1     8.590255     6A2     8.636539
      23A1     8.636539    24A1     8.746963    14B1    10.274603
      14B2    10.274603    25A1    12.616386    26A1    32.112279

    Beta Occupied:

       1A1   -19.309845     2A1   -14.504822     3A1    -1.116635
       1B1    -0.873563     1B2    -0.873563     4A1    -0.379170
       5A1    -0.151976

    Beta Virtual:

       6A1     0.446085     2B1     0.539109     2B2     0.539109
       3B2     0.569327     3B1     0.569327     7A1     0.663067
       8A1     0.826670     4B2     1.078070     4B1     1.078070
       1A2     1.186342     9A1     1.186342    10A1     1.553962
       5B1     1.859533     5B2     1.859533    11A1     1.875432
      12A1     2.029161     2A2     2.029161     6B1     2.033388
       6B2     2.033388    13A1     2.153098     7B2     3.075431
       7B1     3.075431    14A1     3.294215     8B2     3.960679
       8B1     3.960679    15A1     4.036122     3A2     4.249611
      16A1     4.249611     9B1     4.463445     9B2     4.463445
      17A1     4.573962    18A1     4.674286     4A2     4.674286
      10B1     4.864093    10B2     4.864093    19A1     5.621146
      11B2     5.855470    11B1     5.855470    12B1     5.994523
      12B2     5.994523     5A2     6.132262    20A1     6.132262
      21A1     6.957183    13B1     8.156982    13B2     8.156982
      22A1     8.596162     6A2     8.650320    23A1     8.650321
      24A1     8.758701    14B1    10.285239    14B2    10.285239
      25A1    12.618774    26A1    32.118834

    Final Occupation by Irrep:
             A1    A2    B1    B2
    DOCC [     5,    0,    1,    1 ]
    SOCC [     0,    0,    1,    1 ]
    NA   [     5,    0,    2,    2 ]
    NB   [     5,    0,    1,    1 ]

  @DF-UKS Final Energy:  -123.90278600113508

   => Energetics <=

    Nuclear Repulsion Energy =             58.8312024107474656
    One-Electron Energy =                -281.8525497308627337
    Two-Electron Energy =                 112.9904580338902917
    DFT Exchange-Correlation Energy =     -13.8718967149101093
    Empirical Dispersion Energy =           0.0000000000000000
    VV10 Nonlocal Energy =                  0.0000000000000000
    Total Energy =                       -123.9027860011350839

  UHF NO Occupations:
  HONO-2 :    5 A1 1.9984619
  HONO-1 :    2 B2 1.0000000
  HONO-0 :    2 B1 1.0000000
  LUNO+0 :    6 A1 0.0015381
  LUNO+1 :    3 B2 0.0000268
  LUNO+2 :    3 B1 0.0000268
  LUNO+3 :    7 A1 0.0000255

Computation Completed

Properties will be evaluated at   0.000000,   0.000000,   0.000000 [a0]

Properties computed using the B3LYP density matrix

 Multipole Moments:

 ------------------------------------------------------------------------------------
     Multipole            Electronic (a.u.)      Nuclear  (a.u.)        Total (a.u.)
 ------------------------------------------------------------------------------------

 L = 1.  Multiply by 2.5417464519 to convert [e a0] to [Debye]
 Dipole X            :          0.0000000            0.0000000            0.0000000
 Dipole Y            :          0.0000000            0.0000000            0.0000000
 Dipole Z            :         -2.1923692           -0.0019099           -2.1942791
 Magnitude           :                                                    2.1942791

 L = 2.  Multiply by 1.3450342976 to convert [e a0^2] to [Debye ang]
 Quadrupole XX       :        -11.5200682            0.0000000          -11.5200682
 Quadrupole XY       :          0.0000000            0.0000000            0.0000000
 Quadrupole XZ       :          0.0000000            0.0000000            0.0000000
 Quadrupole YY       :        -11.5200682            0.0000000          -11.5200682
 Quadrupole YZ       :          0.0000000            0.0000000            0.0000000
 Quadrupole ZZ       :        -14.4720110            3.3826526          -11.0893584
 Traceless XX        :          0.9839809           -1.1275509           -0.1435699
 Traceless YY        :          0.9839809           -1.1275509           -0.1435699
 Traceless ZZ        :         -1.9679619            2.2551018            0.2871399

 ------------------------------------------------------------------------------------
  ==> Computing MBIS Charges <==

  Electron Count from Grid (Expected Number): 16.00000 (16.00000)
  Difference:  0.00000

  MBIS Charges: (a.u.)
   Center  Symbol  Z      Pop.       Charge
      1       O    8    6.922936    1.077064
      2       N    7    9.077066   -2.077066

  MBIS Dipoles: [e a0]
   Center  Symbol  Z        X           Y           Z
      1       O    8    0.000000   -0.000000   -0.108633
      2       N    7   -0.000000   -0.000000   -0.552874

  MBIS Quadrupoles: [e a0^2]
   Center  Symbol  Z      XX        XY        XZ        YY        YZ        ZZ
      1       O    8   -1.5249    0.0000    0.0000   -1.5249    0.0000   -1.8590
      2       N    7   -9.9952   -0.0000    0.0000   -9.9952   -0.0000   -8.4433

  MBIS Octupoles: [e a0^3]
   Center  Symbol  Z      XXX       XXY       XXZ       XYY       XYZ       XZZ       YYY       YYZ       YZZ       ZZZ
      1       O    8   -0.0000   -0.0000   -0.0315   -0.0000    0.0000   -0.0000    0.0000   -0.0315   -0.0000    0.1635
      2       N    7   -0.0000    0.0000   -3.1106    0.0000   -0.0000   -0.0000    0.0000   -3.1106    0.0000   -1.1985

  MBIS Radial Moments:
   Center  Symbol  Z      [a0^2]      [a0^3]      [a0^4]
      1       O    8    4.908721    6.429446   10.212648
      2       N    7   28.433707   79.872688   255.547623

  MBIS Valence Widths: [a0]
   Center  Symbol  Z     Width
      1       O    8    0.272797
      2       N    7    0.575746

*** tstop() called on Mac.lan at Sun Aug 10 17:46:29 2025
Module time:
	user time   =       4.05 seconds =       0.07 minutes
	system time =       3.29 seconds =       0.05 minutes
	total time  =          0 seconds =       0.00 minutes
Total time:
	user time   =      20.58 seconds =       0.34 minutes
	system time =       5.40 seconds =       0.09 minutes
	total time  =          2 seconds =       0.03 minutes

    Psi4 stopped on: Sunday, 10 August 2025 05:46PM
    Psi4 wall time for execution: 0:00:02.50

*** Psi4 exiting successfully. Buy a developer a beer!
