                               Psi4 1.9.1 release

  ==> Input File <==

--------------------------------------------------------------------------
molecule {
-1 2
C           0.000000           0.000000           0.000000
C           0.000000           0.000000           1.265490
}

set {
basis              cc-pvtz
reference          uks
maxiter            500
DAMPING_PERCENTAGE 1
E_CONVERGENCE      1.0E-8
D_CONVERGENCE      1.0E-8
DIIS_MAX_VECS      400
MBIS_MAXITER       8000
guess              read
}

E, wfn = energy('b3lyp', restart_file='last_wfn', return_wfn=True)
properties('b3lyp','MBIS_CHARGES', wfn=wfn)
wfn.to_file('last_wfn')
--------------------------------------------------------------------------

    Molecular point group: d2h
  Charge       = -1
  Multiplicity = 2
  Basis Set: CC-PVTZ
    Blend: CC-PVTZ
  Basis Set: (CC-PVTZ AUX)
    Blend: CC-PVTZ-JKFIT
  @DF-UKS Final Energy:   -76.05874834234874
    Total Energy =                        -76.0587483423487356
 Dipole X            :          0.0000000            0.0000000            0.0000000
 Dipole Y            :          0.0000000            0.0000000            0.0000000
 Dipole Z            :          0.0000000            0.0000000            0.0000000
 Magnitude           :                                                    0.0000000
    Molecular point group: d2h

    Geometry (in Angstrom), charge = -1, multiplicity = 2:

       Center              X                  Y                   Z               Mass
    ------------   -----------------  -----------------  -----------------  -----------------
         C            0.000000000000     0.000000000000    -0.632745000000    12.000000000000
         C            0.000000000000     0.000000000000     0.632745000000    12.000000000000

  Charge       = -1
  Multiplicity = 2
  Basis Set: CC-PVTZ
    Blend: CC-PVTZ
  Basis Set: (CC-PVTZ AUX)
    Blend: CC-PVTZ-JKFIT

    Orbital Energies [Eh]
    ---------------------

    Alpha Occupied:

       1Ag    -9.918779     1B1u   -9.917194     2Ag    -0.467568
       2B1u   -0.123121     3Ag    -0.037562     1B3u   -0.012925
       1B2u   -0.012925

    Alpha Virtual:

       1B3g    0.288462     1B2g    0.288462     3B1u    0.393485
       4Ag     0.502148     2B2u    0.528935     2B3u    0.528935
       5Ag     0.619304     2B3g    0.633888     2B2g    0.633888
       4B1u    0.789196     1B1g    0.862432     6Ag     0.862432
       5B1u    0.912934     3B2u    1.045699     3B3u    1.045699
       6B1u    1.151584     1Au     1.151584     3B2g    1.407182
       3B3g    1.407182     7Ag     1.417688     7B1u    1.660895
       4B2u    2.237807     4B3u    2.237807     8Ag     2.360948
       4B2g    2.500764     4B3g    2.500764     8B1u    2.637486
       2B1g    2.737172     9Ag     2.737172     5B3u    2.795366
       5B2u    2.795366     6B3u    2.821808     6B2u    2.821808
      10Ag     3.024821     5B3g    3.186972     5B2g    3.186972
       3B1g    3.255423    11Ag     3.255424     6B2g    3.299915
       6B3g    3.299915     2Au     3.342852     9B1u    3.342853
      10B1u    3.563533     7B3u    3.752129     7B2u    3.752129
      11B1u    3.800022     3Au     3.800022    12Ag     3.926731
      12B1u    4.275485     7B2g    4.878784     7B3g    4.878784
      13Ag     5.037784    13B1u   12.402246

    Beta Occupied:

       1Ag    -9.910239     1B1u   -9.908892     2Ag    -0.436276
       2B1u   -0.061245     1B3u   -0.004677     1B2u   -0.004677

    Beta Virtual:

       3Ag     0.094193     1B3g    0.301585     1B2g    0.301585
       3B1u    0.404031     4Ag     0.525855     2B2u    0.533234
       2B3u    0.533234     5Ag     0.639758     2B3g    0.640619
       2B2g    0.640619     4B1u    0.821798     1B1g    0.864185
       6Ag     0.864185     5B1u    0.933848     3B2u    1.069613
       3B3u    1.069613     1Au     1.157677     6B1u    1.157677
       3B2g    1.426401     3B3g    1.426401     7Ag     1.450986
       7B1u    1.695048     4B2u    2.244412     4B3u    2.244412
       8Ag     2.390555     4B2g    2.506070     4B3g    2.506070
       8B1u    2.674265     2B1g    2.750806     9Ag     2.750806
       5B3u    2.823572     5B2u    2.823572     6B3u    2.828553
       6B2u    2.828553    10Ag     3.085294     5B3g    3.189410
       5B2g    3.189410     3B1g    3.266108    11Ag     3.266109
       6B2g    3.345971     6B3g    3.345971     2Au     3.351969
       9B1u    3.351970    10B1u    3.601616     7B3u    3.790350
       7B2u    3.790350    11B1u    3.816033     3Au     3.816033
      12Ag     3.955467    12B1u    4.323864     7B2g    4.905918
       7B3g    4.905918    13Ag     5.064248    13B1u   12.418088

    Final Occupation by Irrep:
             Ag   B1g   B2g   B3g    Au   B1u   B2u   B3u
    DOCC [     2,    0,    0,    0,    0,    2,    1,    1 ]
    SOCC [     1,    0,    0,    0,    0,    0,    0,    0 ]
    NA   [     3,    0,    0,    0,    0,    2,    1,    1 ]
    NB   [     2,    0,    0,    0,    0,    2,    1,    1 ]

  @DF-UKS Final Energy:   -76.05874834159101

   => Energetics <=

    Nuclear Repulsion Energy =             15.0537575043026788
    One-Electron Energy =                -135.0687072000044395
    Two-Electron Energy =                  52.7520242767791956
    DFT Exchange-Correlation Energy =      -8.7958229226684441
    Empirical Dispersion Energy =           0.0000000000000000
    VV10 Nonlocal Energy =                  0.0000000000000000
    Total Energy =                        -76.0587483415910128

  UHF NO Occupations:
  HONO-2 :    2 Ag 1.9997159
  HONO-1 :    2B1u 1.9984830
  HONO-0 :    3 Ag 1.0000000
  LUNO+0 :    3B1u 0.0015170
  LUNO+1 :    4 Ag 0.0002841
  LUNO+2 :    2B3u 0.0001012
  LUNO+3 :    2B2u 0.0001012

Computation Completed

Properties will be evaluated at   0.000000,   0.000000,   0.000000 [a0]

Properties computed using the B3LYP density matrix

 Multipole Moments:

 ------------------------------------------------------------------------------------
     Multipole            Electronic (a.u.)      Nuclear  (a.u.)        Total (a.u.)
 ------------------------------------------------------------------------------------

 L = 1.  Multiply by 2.5417464519 to convert [e a0] to [Debye]
 Dipole X            :          0.0000000            0.0000000            0.0000000
 Dipole Y            :          0.0000000            0.0000000            0.0000000
 Dipole Z            :          0.0000000            0.0000000            0.0000000
 Magnitude           :                                                    0.0000000

 L = 2.  Multiply by 1.3450342976 to convert [e a0^2] to [Debye ang]
 Quadrupole XX       :        -11.5155046            0.0000000          -11.5155046
 Quadrupole XY       :          0.0000000            0.0000000            0.0000000
 Quadrupole XZ       :          0.0000000            0.0000000            0.0000000
 Quadrupole YY       :        -11.5155046            0.0000000          -11.5155046
 Quadrupole YZ       :          0.0000000            0.0000000            0.0000000
 Quadrupole ZZ       :        -30.5622219           17.1568054          -13.4054166
 Traceless XX        :          6.3489058           -5.7189351            0.6299707
 Traceless YY        :          6.3489058           -5.7189351            0.6299707
 Traceless ZZ        :        -12.6978116           11.4378702           -1.2599413

 ------------------------------------------------------------------------------------
  ==> Computing MBIS Charges <==

  Electron Count from Grid (Expected Number): 13.00000 (13.00000)
  Difference: -0.00000

  MBIS Charges: (a.u.)
   Center  Symbol  Z      Pop.       Charge
      1       C    6    6.500000   -0.500000
      2       C    6    6.500000   -0.500000

  MBIS Dipoles: [e a0]
   Center  Symbol  Z        X           Y           Z
      1       C    6   -0.000000    0.000000   -0.059206
      2       C    6   -0.000000    0.000000    0.059206

  MBIS Quadrupoles: [e a0^2]
   Center  Symbol  Z      XX        XY        XZ        YY        YZ        ZZ
      1       C    6   -5.7578    0.0000   -0.0000   -5.7578   -0.0000   -6.1294
      2       C    6   -5.7578    0.0000    0.0000   -5.7578    0.0000   -6.1294

  MBIS Octupoles: [e a0^3]
   Center  Symbol  Z      XXX       XXY       XXZ       XYY       XYZ       XZZ       YYY       YYZ       YZZ       ZZZ
      1       C    6   -0.0000    0.0000   -0.1158   -0.0000    0.0000   -0.0000    0.0000   -0.1158    0.0000   -0.0031
      2       C    6   -0.0000    0.0000    0.1158   -0.0000   -0.0000   -0.0000    0.0000    0.1158    0.0000    0.0031

  MBIS Radial Moments:
   Center  Symbol  Z      [a0^2]      [a0^3]      [a0^4]
      1       C    6   17.644934   47.180890   149.590845
      2       C    6   17.644934   47.180890   149.590845

  MBIS Valence Widths: [a0]
   Center  Symbol  Z     Width
      1       C    6    0.557023
      2       C    6    0.557023

*** tstop() called on Mac.lan at Sun Aug 10 17:30:47 2025
Module time:
	user time   =       3.66 seconds =       0.06 minutes
	system time =       2.21 seconds =       0.04 minutes
	total time  =          1 seconds =       0.02 minutes
Total time:
	user time   =      15.98 seconds =       0.27 minutes
	system time =       4.25 seconds =       0.07 minutes
	total time  =          2 seconds =       0.03 minutes

    Psi4 stopped on: Sunday, 10 August 2025 05:30PM
    Psi4 wall time for execution: 0:00:01.97

*** Psi4 exiting successfully. Buy a developer a beer!
