                               Psi4 1.9.1 release

  ==> Input File <==

--------------------------------------------------------------------------
molecule {
-1 3
O           0.000000           0.000000           0.000000
N           0.000000           0.000000           1.516313
}

set {
basis              cc-pvtz
reference          uks
maxiter            500
DAMPING_PERCENTAGE 1
E_CONVERGENCE      1.0E-8
D_CONVERGENCE      1.0E-8
DIIS_MAX_VECS      400
MBIS_MAXITER       8000
guess              read
}

E, wfn = energy('b3lyp', restart_file='last_wfn', return_wfn=True)
properties('b3lyp','MBIS_CHARGES', wfn=wfn)
wfn.to_file('last_wfn')
--------------------------------------------------------------------------

    Molecular point group: c2v
  Charge       = -1
  Multiplicity = 3
  Basis Set: CC-PVTZ
    Blend: CC-PVTZ
  Basis Set: (CC-PVTZ AUX)
    Blend: CC-PVTZ-JKFIT
  @DF-UKS Final Energy:  -129.89295850582999
    Total Energy =                       -129.8929585058299949
 Dipole X            :          0.0000000            0.0000000            0.0000000
 Dipole Y            :          0.0000000            0.0000000            0.0000000
 Dipole Z            :         -0.0199328           -0.0057493           -0.0256821
 Magnitude           :                                                    0.0256821
    Molecular point group: c2v

    Geometry (in Angstrom), charge = -1, multiplicity = 3:

       Center              X                  Y                   Z               Mass
    ------------   -----------------  -----------------  -----------------  -----------------
         O            0.000000000000     0.000000000000    -0.707815561204    15.994914619570
         N            0.000000000000     0.000000000000     0.808497438796    14.003074004430

  Charge       = -1
  Multiplicity = 3
  Basis Set: CC-PVTZ
    Blend: CC-PVTZ
  Basis Set: (CC-PVTZ AUX)
    Blend: CC-PVTZ-JKFIT

    Orbital Energies [Eh]
    ---------------------

    Alpha Occupied:

       1A1   -18.844222     2A1   -14.081399     3A1    -0.664573
       4A1    -0.393685     5A1    -0.078999     1B2    -0.074810
       1B1    -0.074810     2B1     0.061429     2B2     0.061429

    Alpha Virtual:

       6A1     0.359664     7A1     0.695440     3B1     0.720730
       3B2     0.720730     8A1     0.791072     9A1     0.887338
       4B1     0.899820     4B2     0.899820    10A1     1.289294
       1A2     1.289294     5B1     1.335538     5B2     1.335538
      11A1     1.433647    12A1     1.806299     2A2     1.809152
      13A1     1.809152     6B1     2.136907     6B2     2.136907
      14A1     2.349581     7B1     3.107461     7B2     3.107461
      15A1     3.370200     8B1     3.825246     8B2     3.825246
      16A1     3.975426    17A1     4.145289     3A2     4.145290
       9B2     4.155082     9B1     4.155082    10B1     4.296450
      10B2     4.296450    18A1     4.609818    19A1     4.682466
       4A2     4.682475    11B1     4.866174    11B2     4.866174
      20A1     5.310630    12B2     5.437837    12B1     5.437837
      21A1     5.490481    22A1     5.513535     5A2     5.513536
      13B2     5.916984    13B1     5.916984    23A1     6.453329
       6A2     6.509275    24A1     6.509318    14B1     6.853203
      14B2     6.853203    25A1     7.688040    26A1     8.542184

    Beta Occupied:

       1A1   -18.827855     2A1   -14.050429     3A1    -0.620500
       4A1    -0.307843     5A1    -0.053001     1B2     0.001735
       1B1     0.001735

    Beta Virtual:

       2B1     0.229475     2B2     0.229475     6A1     0.391506
       7A1     0.711042     3B1     0.778306     3B2     0.778306
       8A1     0.818240     9A1     0.902273     4B1     0.926931
       4B2     0.926931     1A2     1.351633    10A1     1.351633
       5B1     1.363630     5B2     1.363630    11A1     1.453716
      12A1     1.834490    13A1     1.841600     2A2     1.841600
       6B1     2.162167     6B2     2.162167    14A1     2.365946
       7B1     3.192529     7B2     3.192529    15A1     3.390193
       8B1     3.867673     8B2     3.867673    16A1     4.011234
      17A1     4.203770     3A2     4.203771     9B2     4.248060
       9B1     4.248060    10B1     4.338120    10B2     4.338120
      18A1     4.637160    19A1     4.808301     4A2     4.808309
      11B1     4.931880    11B2     4.931880    20A1     5.360298
      12B2     5.477728    12B1     5.477728    21A1     5.524336
      22A1     5.541167     5A2     5.541169    13B2     5.941046
      13B1     5.941046    23A1     6.470512     6A2     6.569535
      24A1     6.569575    14B1     6.884095    14B2     6.884095
      25A1     7.714224    26A1     8.571753

    Final Occupation by Irrep:
             A1    A2    B1    B2
    DOCC [     5,    0,    1,    1 ]
    SOCC [     0,    0,    1,    1 ]
    NA   [     5,    0,    2,    2 ]
    NB   [     5,    0,    1,    1 ]

  @DF-UKS Final Energy:  -129.89295850522964

   => Energetics <=

    Nuclear Repulsion Energy =             19.5434081205661379
    One-Electron Energy =                -221.8878450188056490
    Two-Electron Energy =                  85.0218773252496760
    DFT Exchange-Correlation Energy =     -12.5703989322398222
    Empirical Dispersion Energy =           0.0000000000000000
    VV10 Nonlocal Energy =                  0.0000000000000000
    Total Energy =                       -129.8929585052296432

  UHF NO Occupations:
  HONO-2 :    1 B1 1.9982821
  HONO-1 :    2 B2 1.0000000
  HONO-0 :    2 B1 1.0000000
  LUNO+0 :    3 B1 0.0017179
  LUNO+1 :    3 B2 0.0017179
  LUNO+2 :    6 A1 0.0014001
  LUNO+3 :    7 A1 0.0002751

Computation Completed

Properties will be evaluated at   0.000000,   0.000000,   0.000000 [a0]

Properties computed using the B3LYP density matrix

 Multipole Moments:

 ------------------------------------------------------------------------------------
     Multipole            Electronic (a.u.)      Nuclear  (a.u.)        Total (a.u.)
 ------------------------------------------------------------------------------------

 L = 1.  Multiply by 2.5417464519 to convert [e a0] to [Debye]
 Dipole X            :          0.0000000            0.0000000            0.0000000
 Dipole Y            :          0.0000000            0.0000000            0.0000000
 Dipole Z            :         -0.0199327           -0.0057493           -0.0256821
 Magnitude           :                                                    0.0256821

 L = 2.  Multiply by 1.3450342976 to convert [e a0^2] to [Debye ang]
 Quadrupole XX       :         -9.7981761            0.0000000           -9.7981761
 Quadrupole XY       :          0.0000000            0.0000000            0.0000000
 Quadrupole XZ       :          0.0000000            0.0000000            0.0000000
 Quadrupole YY       :         -9.7981761            0.0000000           -9.7981761
 Quadrupole YZ       :          0.0000000            0.0000000            0.0000000
 Quadrupole ZZ       :        -43.0377698           30.6529481          -12.3848216
 Traceless XX        :         11.0798646          -10.2176494            0.8622152
 Traceless YY        :         11.0798646          -10.2176494            0.8622152
 Traceless ZZ        :        -22.1597291           20.4352988           -1.7244304

 ------------------------------------------------------------------------------------
  ==> Computing MBIS Charges <==

  Electron Count from Grid (Expected Number): 16.00000 (16.00000)
  Difference: -0.00000

  MBIS Charges: (a.u.)
   Center  Symbol  Z      Pop.       Charge
      1       O    8    8.556942   -0.556942
      2       N    7    7.443057   -0.443057

  MBIS Dipoles: [e a0]
   Center  Symbol  Z        X           Y           Z
      1       O    8   -0.000000    0.000000    0.102117
      2       N    7   -0.000000   -0.000000   -0.195833

  MBIS Quadrupoles: [e a0^2]
   Center  Symbol  Z      XX        XY        XZ        YY        YZ        ZZ
      1       O    8   -4.6904    0.0000    0.0000   -4.6904    0.0000   -4.4705
      2       N    7   -5.1077   -0.0000    0.0000   -5.1077    0.0000   -5.0121

  MBIS Octupoles: [e a0^3]
   Center  Symbol  Z      XXX       XXY       XXZ       XYY       XYZ       XZZ       YYY       YYZ       YZZ       ZZZ
      1       O    8   -0.0000   -0.0000    0.1045   -0.0000    0.0000   -0.0000   -0.0000    0.1045   -0.0000   -0.1300
      2       N    7   -0.0000   -0.0000   -0.1388   -0.0000   -0.0000    0.0000    0.0000   -0.1388    0.0000    0.2275

  MBIS Radial Moments:
   Center  Symbol  Z      [a0^2]      [a0^3]      [a0^4]
      1       O    8   13.851351   27.854027   66.769584
      2       N    7   15.227584   34.668773   93.460404

  MBIS Valence Widths: [a0]
   Center  Symbol  Z     Width
      1       O    8    0.410137
      2       N    7    0.471958

*** tstop() called on Mac.lan at Sun Aug 10 17:47:11 2025
Module time:
	user time   =       3.07 seconds =       0.05 minutes
	system time =       2.22 seconds =       0.04 minutes
	total time  =          1 seconds =       0.02 minutes
Total time:
	user time   =      18.50 seconds =       0.31 minutes
	system time =       4.55 seconds =       0.08 minutes
	total time  =          2 seconds =       0.03 minutes

    Psi4 stopped on: Sunday, 10 August 2025 05:47PM
    Psi4 wall time for execution: 0:00:02.22

*** Psi4 exiting successfully. Buy a developer a beer!
