                               Psi4 1.9.1 release

  ==> Input File <==

--------------------------------------------------------------------------
molecule {
-1 2
O           0.000000           0.000000           0.000000
C           0.000000           0.000000           0.886970
}

set {
basis              cc-pvtz
reference          uks
maxiter            500
DAMPING_PERCENTAGE 1
E_CONVERGENCE      1.0E-8
D_CONVERGENCE      1.0E-8
DIIS_MAX_VECS      400
MBIS_MAXITER       8000
guess              read
}

E, wfn = energy('b3lyp', restart_file='last_wfn', return_wfn=True)
properties('b3lyp','MBIS_CHARGES', wfn=wfn)
wfn.to_file('last_wfn')
--------------------------------------------------------------------------

    Molecular point group: c2v
  Charge       = -1
  Multiplicity = 2
  Basis Set: CC-PVTZ
    Blend: CC-PVTZ
  Basis Set: (CC-PVTZ AUX)
    Blend: CC-PVTZ-JKFIT
  @DF-UKS Final Energy:  -112.94552468009111
    Total Energy =                       -112.9455246800911112
 Dipole X            :          0.0000000            0.0000000            0.0000000
 Dipole Y            :          0.0000000            0.0000000            0.0000000
 Dipole Z            :         -1.4070570           -0.0018269           -1.4088839
 Magnitude           :                                                    1.4088839
    Molecular point group: c2v

    Geometry (in Angstrom), charge = -1, multiplicity = 2:

       Center              X                  Y                   Z               Mass
    ------------   -----------------  -----------------  -----------------  -----------------
         O            0.000000000000     0.000000000000    -0.380199052029    15.994914619570
         C            0.000000000000     0.000000000000     0.506770947971    12.000000000000

  Charge       = -1
  Multiplicity = 2
  Basis Set: CC-PVTZ
    Blend: CC-PVTZ
  Basis Set: (CC-PVTZ AUX)
    Blend: CC-PVTZ-JKFIT

    Orbital Energies [Eh]
    ---------------------

    Alpha Occupied:

       1A1   -18.862875     2A1    -9.871383     3A1    -0.963808
       4A1    -0.271735     1B1    -0.269453     1B2    -0.261947
       5A1    -0.044972     2B1     0.278197

    Alpha Virtual:

       2B2     0.347418     6A1     0.402586     3B1     0.560071
       7A1     0.560679     3B2     0.565390     8A1     0.794413
       4B1     0.858701     4B2     0.863329     1A2     0.926214
       9A1     0.928552    10A1     1.102786     5B1     1.258941
       5B2     1.261339    11A1     1.501620     2A2     1.866358
      12A1     1.867353    13A1     2.033914     6B2     2.085356
       6B1     2.087571    14A1     2.271402     7B1     2.403949
       7B2     2.405837     8B1     2.958156     8B2     2.958259
      15A1     2.992866     3A2     3.217919    16A1     3.219146
       9B2     3.340804     9B1     3.341129     4A2     3.347688
      17A1     3.348559    18A1     3.417338    10B1     3.871716
      10B2     3.874795    19A1     4.137565    11B2     4.568497
      11B1     4.570745    12B1     5.451526    12B2     5.451552
      20A1     5.659622     5A2     6.239928    21A1     6.240381
       6A2     6.576553    22A1     6.577289    23A1     6.601832
      13B1     6.839392    13B2     6.839471    24A1     7.314863
      14B2     7.411922    14B1     7.412039    25A1     9.130397
      26A1    15.872489

    Beta Occupied:

       1A1   -18.855620     2A1    -9.868946     3A1    -0.954390
       4A1    -0.259140     1B2    -0.257332     1B1    -0.234985
       5A1    -0.023599

    Beta Virtual:

       2B2     0.357056     2B1     0.381499     6A1     0.408625
       3B2     0.568318     7A1     0.576202     3B1     0.587124
       8A1     0.801233     4B2     0.866507     4B1     0.881591
       1A2     0.949440     9A1     0.949529    10A1     1.112820
       5B2     1.263755     5B1     1.287245    11A1     1.507778
       2A2     1.882027    12A1     1.882077    13A1     2.040261
       6B2     2.088130     6B1     2.107954    14A1     2.286259
       7B2     2.408108     7B1     2.425101     8B2     2.976939
       8B1     2.976979    15A1     2.999237     3A2     3.236312
      16A1     3.236347     9B2     3.340183    17A1     3.359310
       4A2     3.360962     9B1     3.361784    18A1     3.425183
      10B2     3.878669    10B1     3.899464    19A1     4.143595
      11B2     4.571117    11B1     4.590570    12B2     5.466578
      12B1     5.466582    20A1     5.667572     5A2     6.253211
      21A1     6.253271    22A1     6.598108     6A2     6.599617
      23A1     6.608728    13B2     6.842238    13B1     6.859536
      24A1     7.322030    14B2     7.414511    14B1     7.432555
      25A1     9.139183    26A1    15.881994

    Final Occupation by Irrep:
             A1    A2    B1    B2
    DOCC [     5,    0,    1,    1 ]
    SOCC [     0,    0,    1,    0 ]
    NA   [     5,    0,    2,    1 ]
    NB   [     5,    0,    1,    1 ]

  @DF-UKS Final Energy:  -112.94552467973443

   => Energetics <=

    Nuclear Repulsion Energy =             28.6373903425820480
    One-Electron Energy =                -214.0134652874464223
    Two-Electron Energy =                  84.1670686821632898
    DFT Exchange-Correlation Energy =     -11.7365184170333556
    Empirical Dispersion Energy =           0.0000000000000000
    VV10 Nonlocal Energy =                  0.0000000000000000
    Total Energy =                       -112.9455246797344330

  UHF NO Occupations:
  HONO-2 :    1 B1 1.9998383
  HONO-1 :    5 A1 1.9995808
  HONO-0 :    2 B1 1.0000000
  LUNO+0 :    6 A1 0.0004192
  LUNO+1 :    3 B1 0.0001617
  LUNO+2 :    7 A1 0.0000400
  LUNO+3 :    2 B2 0.0000088

Computation Completed

Properties will be evaluated at   0.000000,   0.000000,   0.000000 [a0]

Properties computed using the B3LYP density matrix

 Multipole Moments:

 ------------------------------------------------------------------------------------
     Multipole            Electronic (a.u.)      Nuclear  (a.u.)        Total (a.u.)
 ------------------------------------------------------------------------------------

 L = 1.  Multiply by 2.5417464519 to convert [e a0] to [Debye]
 Dipole X            :          0.0000000            0.0000000            0.0000000
 Dipole Y            :          0.0000000            0.0000000            0.0000000
 Dipole Z            :         -1.4070570           -0.0018269           -1.4088839
 Magnitude           :                                                    1.4088839

 L = 2.  Multiply by 1.3450342976 to convert [e a0^2] to [Debye ang]
 Quadrupole XX       :        -12.5916963            0.0000000          -12.5916963
 Quadrupole XY       :          0.0000000            0.0000000            0.0000000
 Quadrupole XZ       :          0.0000000            0.0000000            0.0000000
 Quadrupole YY       :         -9.3689212            0.0000000           -9.3689212
 Quadrupole YZ       :          0.0000000            0.0000000            0.0000000
 Quadrupole ZZ       :        -22.7612630            9.6322736          -13.1289894
 Traceless XX        :          2.3155972           -3.2107579           -0.8951606
 Traceless YY        :          5.5383723           -3.2107579            2.3276144
 Traceless ZZ        :         -7.8539695            6.4215157           -1.4324538

 ------------------------------------------------------------------------------------
  ==> Computing MBIS Charges <==

  Electron Count from Grid (Expected Number): 15.00000 (15.00000)
  Difference: -0.00000

  MBIS Charges: (a.u.)
   Center  Symbol  Z      Pop.       Charge
      1       O    8    7.945251    0.054749
      2       C    6    7.054749   -1.054749

  MBIS Dipoles: [e a0]
   Center  Symbol  Z        X           Y           Z
      1       O    8   -0.000000    0.000000    0.031834
      2       C    6   -0.000000    0.000000   -0.391294

  MBIS Quadrupoles: [e a0^2]
   Center  Symbol  Z      XX        XY        XZ        YY        YZ        ZZ
      1       O    8   -3.1607    0.0000   -0.0000   -2.9798   -0.0000   -3.5288
      2       C    6   -9.4310    0.0000    0.0000   -6.3892    0.0000   -7.8659

  MBIS Octupoles: [e a0^3]
   Center  Symbol  Z      XXX       XXY       XXZ       XYY       XYZ       XZZ       YYY       YYZ       YZZ       ZZZ
      1       O    8   -0.0000    0.0000    0.0410   -0.0000    0.0000   -0.0000   -0.0000    0.1102   -0.0000    0.2751
      2       C    6   -0.0000   -0.0000   -2.6411   -0.0000   -0.0000    0.0000    0.0000   -0.8001   -0.0000   -0.6884

  MBIS Radial Moments:
   Center  Symbol  Z      [a0^2]      [a0^3]      [a0^4]
      1       O    8    9.669341   16.768713   35.128987
      2       C    6   23.686011   70.595881   245.365629

  MBIS Valence Widths: [a0]
   Center  Symbol  Z     Width
      1       O    8    0.357259
      2       C    6    0.611085

*** tstop() called on Mac.lan at Sun Aug 10 17:42:05 2025
Module time:
	user time   =       4.09 seconds =       0.07 minutes
	system time =       2.27 seconds =       0.04 minutes
	total time  =          1 seconds =       0.02 minutes
Total time:
	user time   =      18.65 seconds =       0.31 minutes
	system time =       4.64 seconds =       0.08 minutes
	total time  =          3 seconds =       0.05 minutes

    Psi4 stopped on: Sunday, 10 August 2025 05:42PM
    Psi4 wall time for execution: 0:00:02.25

*** Psi4 exiting successfully. Buy a developer a beer!
