                               Psi4 1.9.1 release

  ==> Input File <==

--------------------------------------------------------------------------
molecule {
-1 3
C           0.000000           0.000000           0.000000
H           0.000000           0.000000           0.889327
}

set {
basis              cc-pvtz
reference          uks
maxiter            500
DAMPING_PERCENTAGE 1
E_CONVERGENCE      1.0E-8
D_CONVERGENCE      1.0E-8
DIIS_MAX_VECS      400
MBIS_MAXITER       8000
guess              read
}

E, wfn = energy('b3lyp', restart_file='last_wfn', return_wfn=True)
properties('b3lyp','MBIS_CHARGES', wfn=wfn)
wfn.to_file('last_wfn')
--------------------------------------------------------------------------

    Molecular point group: c2v
  Charge       = -1
  Multiplicity = 3
  Basis Set: CC-PVTZ
    Blend: CC-PVTZ
  Basis Set: (CC-PVTZ AUX)
    Blend: CC-PVTZ-JKFIT
  @DF-UKS Final Energy:   -38.47863528203154
    Total Energy =                        -38.4786352820315329
 Dipole X            :          0.0000000            0.0000000            0.0000000
 Dipole Y            :          0.0000000            0.0000000            0.0000000
 Dipole Z            :          0.0063435            0.7691219            0.7754654
 Magnitude           :                                                    0.7754654
    Molecular point group: c2v

    Geometry (in Angstrom), charge = -1, multiplicity = 3:

       Center              X                  Y                   Z               Mass
    ------------   -----------------  -----------------  -----------------  -----------------
         C            0.000000000000     0.000000000000    -0.068903603040    12.000000000000
         H            0.000000000000     0.000000000000     0.820423396960     1.007825032230

  Charge       = -1
  Multiplicity = 3
  Basis Set: CC-PVTZ
    Blend: CC-PVTZ
  Basis Set: (CC-PVTZ AUX)
    Blend: CC-PVTZ-JKFIT

    Orbital Energies [Eh]
    ---------------------

    Alpha Occupied:

       1A1    -9.839193     2A1    -0.356921     3A1     0.021112
       1B1     0.093560     1B2     0.093560

    Alpha Virtual:

       4A1     0.298928     5A1     0.543588     2B2     0.578430
       2B1     0.578430     6A1     0.647576     7A1     0.841266
       3B1     0.922297     3B2     0.922297     1A2     0.970178
       8A1     0.970178     9A1     1.291779     4B2     1.369456
       4B1     1.369456    10A1     2.067559    11A1     2.246592
       5B2     2.305644     5B1     2.305644    12A1     2.518598
      13A1     2.905835     2A2     2.905835     6B1     3.002862
       6B2     3.002862     7B1     3.053349     7B2     3.053349
      14A1     3.267320     3A2     3.267320    15A1     3.361865
       8B2     3.378384     8B1     3.378384    16A1     3.977045
       4A2     4.162248    17A1     4.162248     9B2     4.270262
       9B1     4.270262    18A1     5.591388    10B2     5.638230
      10B1     5.638230    19A1     5.839430    20A1    11.510977

    Beta Occupied:

       1A1    -9.816609     2A1    -0.291483     3A1     0.061777

    Beta Virtual:

       1B1     0.248272     1B2     0.248272     4A1     0.303877
       5A1     0.561140     2B2     0.648141     2B1     0.648141
       6A1     0.682981     7A1     0.864219     3B1     0.957612
       3B2     0.957612     1A2     1.046747     8A1     1.046747
       9A1     1.313319     4B2     1.391802     4B1     1.391802
      10A1     2.098502    11A1     2.270203     5B2     2.384187
       5B1     2.384187    12A1     2.559642     2A2     2.958489
      13A1     2.958489     6B1     3.097340     6B2     3.097340
       7B1     3.097919     7B2     3.097919     3A2     3.378331
      14A1     3.378332    15A1     3.394653     8B2     3.415646
       8B1     3.415646    16A1     3.998892     4A2     4.193383
      17A1     4.193384     9B2     4.282061     9B1     4.282061
      18A1     5.608567    10B2     5.668810    10B1     5.668810
      19A1     5.852356    20A1    11.536433

    Final Occupation by Irrep:
             A1    A2    B1    B2
    DOCC [     3,    0,    0,    0 ]
    SOCC [     0,    0,    1,    1 ]
    NA   [     3,    0,    1,    1 ]
    NB   [     3,    0,    0,    0 ]

  @DF-UKS Final Energy:   -38.47863528419349

   => Energetics <=

    Nuclear Repulsion Energy =              3.5701865163432571
    One-Electron Energy =                 -60.5713819920343965
    Two-Electron Energy =                  23.3685624140577985
    DFT Exchange-Correlation Energy =      -4.8460022225601342
    Empirical Dispersion Energy =           0.0000000000000000
    VV10 Nonlocal Energy =                  0.0000000000000000
    Total Energy =                        -38.4786352841934729

  UHF NO Occupations:
  HONO-2 :    3 A1 1.9977741
  HONO-1 :    1 B2 1.0000000
  HONO-0 :    1 B1 1.0000000
  LUNO+0 :    4 A1 0.0022259
  LUNO+1 :    5 A1 0.0002377
  LUNO+2 :    6 A1 0.0000011
  LUNO+3 :    7 A1 0.0000000

Computation Completed

Properties will be evaluated at   0.000000,   0.000000,   0.000000 [a0]

Properties computed using the B3LYP density matrix

 Multipole Moments:

 ------------------------------------------------------------------------------------
     Multipole            Electronic (a.u.)      Nuclear  (a.u.)        Total (a.u.)
 ------------------------------------------------------------------------------------

 L = 1.  Multiply by 2.5417464519 to convert [e a0] to [Debye]
 Dipole X            :          0.0000000            0.0000000            0.0000000
 Dipole Y            :          0.0000000            0.0000000            0.0000000
 Dipole Z            :          0.0063435            0.7691219            0.7754654
 Magnitude           :                                                    0.7754654

 L = 2.  Multiply by 1.3450342976 to convert [e a0^2] to [Debye ang]
 Quadrupole XX       :         -7.8371155            0.0000000           -7.8371155
 Quadrupole XY       :          0.0000000            0.0000000            0.0000000
 Quadrupole XZ       :          0.0000000            0.0000000            0.0000000
 Quadrupole YY       :         -7.8371155            0.0000000           -7.8371155
 Quadrupole YZ       :          0.0000000            0.0000000            0.0000000
 Quadrupole ZZ       :        -10.5125736            2.5053905           -8.0071831
 Traceless XX        :          0.8918194           -0.8351302            0.0566892
 Traceless YY        :          0.8918194           -0.8351302            0.0566892
 Traceless ZZ        :         -1.7836387            1.6702603           -0.1133784

 ------------------------------------------------------------------------------------
  ==> Computing MBIS Charges <==

  Electron Count from Grid (Expected Number):  8.00000 ( 8.00000)
  Difference:  0.00000

  MBIS Charges: (a.u.)
   Center  Symbol  Z      Pop.       Charge
      1       C    6    7.171553   -1.171553
      2       H    1    0.828447    0.171553

  MBIS Dipoles: [e a0]
   Center  Symbol  Z        X           Y           Z
      1       C    6    0.000000    0.000000    0.333553
      2       H    1    0.000000    0.000000    0.023395

  MBIS Quadrupoles: [e a0^2]
   Center  Symbol  Z      XX        XY        XZ        YY        YZ        ZZ
      1       C    6   -7.4758    0.0000    0.0000   -7.4758   -0.0000   -8.0103
      2       H    1   -0.3613   -0.0000   -0.0000   -0.3613    0.0000   -0.3751

  MBIS Octupoles: [e a0^3]
   Center  Symbol  Z      XXX       XXY       XXZ       XYY       XYZ       XZZ       YYY       YYZ       YZZ       ZZZ
      1       C    6   -0.0000    0.0000    0.7877    0.0000   -0.0000    0.0000    0.0000    0.7877    0.0000    1.0902
      2       H    1   -0.0000   -0.0000    0.0010   -0.0000    0.0000   -0.0000    0.0000    0.0010    0.0000   -0.0079

  MBIS Radial Moments:
   Center  Symbol  Z      [a0^2]      [a0^3]      [a0^4]
      1       C    6   22.961838   65.269941   216.678835
      2       H    1    1.097746    1.810599    3.592562

  MBIS Valence Widths: [a0]
   Center  Symbol  Z     Width
      1       C    6    0.597330
      2       H    1    0.334438

*** tstop() called on Mac.lan at Sun Aug 10 17:34:55 2025
Module time:
	user time   =       2.92 seconds =       0.05 minutes
	system time =       2.41 seconds =       0.04 minutes
	total time  =          1 seconds =       0.02 minutes
Total time:
	user time   =      11.10 seconds =       0.19 minutes
	system time =       5.10 seconds =       0.08 minutes
	total time  =          2 seconds =       0.03 minutes

    Psi4 stopped on: Sunday, 10 August 2025 05:34PM
    Psi4 wall time for execution: 0:00:01.58

*** Psi4 exiting successfully. Buy a developer a beer!
