                               Psi4 1.9.1 release

  ==> Input File <==

--------------------------------------------------------------------------
molecule {
-1 1
O           0.000000           0.000000           0.000000
H           0.000000           0.000000           0.977998
}

set {
basis              cc-pvtz
reference          uks
maxiter            500
DAMPING_PERCENTAGE 1
E_CONVERGENCE      1.0E-8
D_CONVERGENCE      1.0E-8
DIIS_MAX_VECS      400
MBIS_MAXITER       8000
guess              read
}

E, wfn = energy('b3lyp', restart_file='last_wfn', return_wfn=True)
properties('b3lyp','MBIS_CHARGES', wfn=wfn)
wfn.to_file('last_wfn')
--------------------------------------------------------------------------

    Molecular point group: c2v
  Charge       = -1
  Multiplicity = 1
  Basis Set: CC-PVTZ
    Blend: CC-PVTZ
  Basis Set: (CC-PVTZ AUX)
    Blend: CC-PVTZ-JKFIT
  @DF-UKS Final Energy:   -75.79037954838172
    Total Energy =                        -75.7903795483817220
 Dipole X            :          0.0000000            0.0000000            0.0000000
 Dipole Y            :          0.0000000            0.0000000            0.0000000
 Dipole Z            :         -0.4468401            0.8622195            0.4153794
 Magnitude           :                                                    0.4153794
    Molecular point group: c2v

    Geometry (in Angstrom), charge = -1, multiplicity = 1:

       Center              X                  Y                   Z               Mass
    ------------   -----------------  -----------------  -----------------  -----------------
         O            0.000000000000     0.000000000000    -0.057970120466    15.994914619570
         H            0.000000000000     0.000000000000     0.920027879534     1.007825032230

  Charge       = -1
  Multiplicity = 1
  Basis Set: CC-PVTZ
    Blend: CC-PVTZ
  Basis Set: (CC-PVTZ AUX)
    Blend: CC-PVTZ-JKFIT

    Orbital Energies [Eh]
    ---------------------

    Alpha Occupied:

       1A1   -18.672027     2A1    -0.517090     3A1    -0.024355
       1B1     0.117563     1B2     0.117563

    Alpha Virtual:

       4A1     0.315009     5A1     0.717820     6A1     0.854463
       2B1     0.943024     2B2     0.943024     3B2     1.049560
       3B1     1.049560     7A1     1.260867     8A1     1.615545
       9A1     1.885148     1A2     1.885148     4B2     2.176513
       4B1     2.176513    10A1     2.274703    11A1     2.830652
      12A1     3.585814     2A2     3.585814     5B2     3.779691
       5B1     3.779691     6B2     4.034876     6B1     4.034876
      13A1     4.070935     7B2     4.476260     7B1     4.476260
      14A1     4.742718    15A1     5.101947     8B2     5.586915
       8B1     5.586915    16A1     5.824992     3A2     5.824992
       4A2     6.676126    17A1     6.676127     9B2     6.780393
       9B1     6.780393    18A1     6.804196    10B2     7.034390
      10B1     7.034390    19A1     7.440127    20A1    10.558708

    Beta Occupied:

       1A1   -18.672027     2A1    -0.517090     3A1    -0.024355
       1B1     0.117563     1B2     0.117563

    Beta Virtual:

       4A1     0.315009     5A1     0.717820     6A1     0.854463
       2B1     0.943024     2B2     0.943024     3B2     1.049560
       3B1     1.049560     7A1     1.260867     8A1     1.615545
       9A1     1.885148     1A2     1.885148     4B2     2.176513
       4B1     2.176513    10A1     2.274703    11A1     2.830652
      12A1     3.585814     2A2     3.585814     5B2     3.779691
       5B1     3.779691     6B2     4.034876     6B1     4.034876
      13A1     4.070935     7B2     4.476260     7B1     4.476260
      14A1     4.742718    15A1     5.101947     8B2     5.586915
       8B1     5.586915    16A1     5.824992     3A2     5.824992
       4A2     6.676126    17A1     6.676127     9B2     6.780393
       9B1     6.780393    18A1     6.804196    10B2     7.034390
      10B1     7.034390    19A1     7.440127    20A1    10.558708

    Final Occupation by Irrep:
             A1    A2    B1    B2
    DOCC [     3,    0,    1,    1 ]
    SOCC [     0,    0,    0,    0 ]
    NA   [     3,    0,    1,    1 ]
    NB   [     3,    0,    1,    1 ]

  @DF-UKS Final Energy:   -75.79037954476885

   => Energetics <=

    Nuclear Repulsion Energy =              4.3286567920997792
    One-Electron Energy =                -116.9222318165462582
    Two-Electron Energy =                  44.2642109153259469
    DFT Exchange-Correlation Energy =      -7.4610154356483145
    Empirical Dispersion Energy =           0.0000000000000000
    VV10 Nonlocal Energy =                  0.0000000000000000
    Total Energy =                        -75.7903795447688537

  UHF NO Occupations:
  HONO-2 :    1 B2 2.0000000
  HONO-1 :    1 B1 2.0000000
  HONO-0 :    3 A1 2.0000000
  LUNO+0 :    4 A1 0.0000000
  LUNO+1 :    5 A1 0.0000000
  LUNO+2 :    6 A1 0.0000000
  LUNO+3 :    7 A1 0.0000000

Computation Completed

Properties will be evaluated at   0.000000,   0.000000,   0.000000 [a0]

Properties computed using the B3LYP density matrix

 Multipole Moments:

 ------------------------------------------------------------------------------------
     Multipole            Electronic (a.u.)      Nuclear  (a.u.)        Total (a.u.)
 ------------------------------------------------------------------------------------

 L = 1.  Multiply by 2.5417464519 to convert [e a0] to [Debye]
 Dipole X            :          0.0000000            0.0000000            0.0000000
 Dipole Y            :          0.0000000            0.0000000            0.0000000
 Dipole Z            :         -0.4468401            0.8622195            0.4153794
 Magnitude           :                                                    0.4153794

 L = 2.  Multiply by 1.3450342976 to convert [e a0^2] to [Debye ang]
 Quadrupole XX       :         -6.3228535            0.0000000           -6.3228535
 Quadrupole XY       :          0.0000000            0.0000000            0.0000000
 Quadrupole XZ       :          0.0000000            0.0000000            0.0000000
 Quadrupole YY       :         -6.3228535            0.0000000           -6.3228535
 Quadrupole YZ       :          0.0000000            0.0000000            0.0000000
 Quadrupole ZZ       :         -8.3040231            3.1187380           -5.1852851
 Traceless XX        :          0.6603899           -1.0395793           -0.3791895
 Traceless YY        :          0.6603899           -1.0395793           -0.3791895
 Traceless ZZ        :         -1.3207797            2.0791586            0.7583789

 ------------------------------------------------------------------------------------
  ==> Computing MBIS Charges <==

  Electron Count from Grid (Expected Number): 10.00000 (10.00000)
  Difference: -0.00000

  MBIS Charges: (a.u.)
   Center  Symbol  Z      Pop.       Charge
      1       O    8    9.222827   -1.222827
      2       H    1    0.777173    0.222827

  MBIS Dipoles: [e a0]
   Center  Symbol  Z        X           Y           Z
      1       O    8   -0.000000   -0.000000   -0.118564
      2       H    1    0.000000    0.000000    0.012578

  MBIS Quadrupoles: [e a0^2]
   Center  Symbol  Z      XX        XY        XZ        YY        YZ        ZZ
      1       O    8   -5.7641   -0.0000    0.0000   -5.7641   -0.0000   -5.3582
      2       H    1   -0.5587   -0.0000    0.0000   -0.5587    0.0000   -0.5557

  MBIS Octupoles: [e a0^3]
   Center  Symbol  Z      XXX       XXY       XXZ       XYY       XYZ       XZZ       YYY       YYZ       YZZ       ZZZ
      1       O    8   -0.0000   -0.0000   -0.1681    0.0000   -0.0000    0.0000   -0.0000   -0.1681    0.0000   -0.8927
      2       H    1    0.0000   -0.0000    0.0003    0.0000    0.0000    0.0000    0.0000    0.0003    0.0000   -0.0134

  MBIS Radial Moments:
   Center  Symbol  Z      [a0^2]      [a0^3]      [a0^4]
      1       O    8   16.886461   35.762432   89.696303
      2       H    1    1.673117    3.546913    8.928014

  MBIS Valence Widths: [a0]
   Center  Symbol  Z     Width
      1       O    8    0.433341
      2       H    1    0.421942

*** tstop() called on Mac.lan at Sun Aug 10 17:37:58 2025
Module time:
	user time   =       3.30 seconds =       0.06 minutes
	system time =       1.62 seconds =       0.03 minutes
	total time  =          1 seconds =       0.02 minutes
Total time:
	user time   =      11.60 seconds =       0.19 minutes
	system time =       3.43 seconds =       0.06 minutes
	total time  =          2 seconds =       0.03 minutes

    Psi4 stopped on: Sunday, 10 August 2025 05:37PM
    Psi4 wall time for execution: 0:00:01.47

*** Psi4 exiting successfully. Buy a developer a beer!
