                               Psi4 1.9.1 release

  ==> Input File <==

--------------------------------------------------------------------------
molecule {
-1 1
N           0.000000           0.000000           0.000000
C           0.000000           0.000000           1.728350
}

set {
basis              cc-pvtz
reference          uks
maxiter            500
DAMPING_PERCENTAGE 1
E_CONVERGENCE      1.0E-8
D_CONVERGENCE      1.0E-8
DIIS_MAX_VECS      400
MBIS_MAXITER       8000
guess              read
}

E, wfn = energy('b3lyp', restart_file='last_wfn', return_wfn=True)
properties('b3lyp','MBIS_CHARGES', wfn=wfn)
wfn.to_file('last_wfn')
--------------------------------------------------------------------------

    Molecular point group: c2v
  Charge       = -1
  Multiplicity = 1
  Basis Set: CC-PVTZ
    Blend: CC-PVTZ
  Basis Set: (CC-PVTZ AUX)
    Blend: CC-PVTZ-JKFIT
  @DF-UKS Final Energy:   -92.66361633298452
    Total Energy =                        -92.6636163329845175
 Dipole X            :          0.0000000            0.0000000            0.0000000
 Dipole Y            :          0.0000000            0.0000000            0.0000000
 Dipole Z            :         -0.0443424            0.0023167           -0.0420258
 Magnitude           :                                                    0.0420258
    Molecular point group: c2v

    Geometry (in Angstrom), charge = -1, multiplicity = 1:

       Center              X                  Y                   Z               Mass
    ------------   -----------------  -----------------  -----------------  -----------------
         N            0.000000000000     0.000000000000    -0.797605698329    14.003074004430
         C            0.000000000000     0.000000000000     0.930744301671    12.000000000000

  Charge       = -1
  Multiplicity = 1
  Basis Set: CC-PVTZ
    Blend: CC-PVTZ
  Basis Set: (CC-PVTZ AUX)
    Blend: CC-PVTZ-JKFIT

    Orbital Energies [Eh]
    ---------------------

    Alpha Occupied:

       1A1   -14.092432     2A1   -10.014238     3A1    -0.456571
       4A1    -0.229026     5A1    -0.018813     1B1     0.007406
       1B2     0.007406

    Alpha Virtual:

       2B1     0.175729     2B2     0.175729     6A1     0.332172
       7A1     0.536765     3B2     0.557398     3B1     0.557398
       8A1     0.610634     9A1     0.717159     4B2     0.761521
       4B1     0.761521     1A2     0.928277    10A1     0.928277
       5B1     0.984983     5B2     0.984983    11A1     1.116746
      12A1     1.314539    13A1     1.359182     2A2     1.359183
       6B2     1.599983     6B1     1.599983    14A1     1.781960
       7B2     2.241582     7B1     2.241582    15A1     2.503895
       8B2     2.921319     8B1     2.921319    16A1     2.931256
       9B1     2.949672     9B2     2.949672    17A1     2.951632
       3A2     2.951632    18A1     3.220879     4A2     3.220886
      10B2     3.229413    10B1     3.229413    19A1     3.389941
      11B1     3.395878    11B2     3.395878    20A1     3.724284
      21A1     4.142751    12B1     4.187465    12B2     4.187465
      22A1     4.248302     5A2     4.248303    13B1     4.506258
      13B2     4.506258     6A2     4.751148    23A1     4.751173
      24A1     4.831269    14B2     5.050229    14B1     5.050229
      25A1     5.783400    26A1     6.522849

    Beta Occupied:

       1A1   -14.092432     2A1   -10.014238     3A1    -0.456571
       4A1    -0.229026     5A1    -0.018813     1B1     0.007406
       1B2     0.007406

    Beta Virtual:

       2B2     0.175729     2B1     0.175729     6A1     0.332172
       7A1     0.536765     3B2     0.557398     3B1     0.557398
       8A1     0.610634     9A1     0.717159     4B2     0.761521
       4B1     0.761521     1A2     0.928277    10A1     0.928277
       5B1     0.984983     5B2     0.984983    11A1     1.116746
      12A1     1.314539    13A1     1.359182     2A2     1.359183
       6B2     1.599983     6B1     1.599983    14A1     1.781960
       7B2     2.241582     7B1     2.241582    15A1     2.503895
       8B2     2.921319     8B1     2.921319    16A1     2.931256
       9B1     2.949672     9B2     2.949672    17A1     2.951632
       3A2     2.951632    18A1     3.220879     4A2     3.220886
      10B2     3.229413    10B1     3.229413    19A1     3.389941
      11B1     3.395878    11B2     3.395878    20A1     3.724284
      21A1     4.142751    12B1     4.187465    12B2     4.187465
      22A1     4.248302     5A2     4.248303    13B1     4.506258
      13B2     4.506258     6A2     4.751148    23A1     4.751173
      24A1     4.831269    14B2     5.050229    14B1     5.050229
      25A1     5.783400    26A1     6.522849

    Final Occupation by Irrep:
             A1    A2    B1    B2
    DOCC [     5,    0,    1,    1 ]
    SOCC [     0,    0,    0,    0 ]
    NA   [     5,    0,    1,    1 ]
    NB   [     5,    0,    1,    1 ]

  @DF-UKS Final Energy:   -92.66361633294403

   => Energetics <=

    Nuclear Repulsion Energy =             12.8593414806838897
    One-Electron Energy =                -154.3678682148125176
    Two-Electron Energy =                  58.6726366556534700
    DFT Exchange-Correlation Energy =      -9.8277262544688782
    Empirical Dispersion Energy =           0.0000000000000000
    VV10 Nonlocal Energy =                  0.0000000000000000
    Total Energy =                        -92.6636163329440308

  UHF NO Occupations:
  HONO-2 :    4 A1 2.0000000
  HONO-1 :    5 A1 2.0000000
  HONO-0 :    1 B2 2.0000000
  LUNO+0 :    6 A1 0.0000000
  LUNO+1 :    7 A1 0.0000000
  LUNO+2 :    8 A1 0.0000000
  LUNO+3 :    9 A1 0.0000000

Computation Completed

Properties will be evaluated at   0.000000,   0.000000,   0.000000 [a0]

Properties computed using the B3LYP density matrix

 Multipole Moments:

 ------------------------------------------------------------------------------------
     Multipole            Electronic (a.u.)      Nuclear  (a.u.)        Total (a.u.)
 ------------------------------------------------------------------------------------

 L = 1.  Multiply by 2.5417464519 to convert [e a0] to [Debye]
 Dipole X            :          0.0000000            0.0000000            0.0000000
 Dipole Y            :          0.0000000            0.0000000            0.0000000
 Dipole Z            :         -0.0443425            0.0023167           -0.0420258
 Magnitude           :                                                    0.0420258

 L = 2.  Multiply by 1.3450342976 to convert [e a0^2] to [Debye ang]
 Quadrupole XX       :        -11.2330061            0.0000000          -11.2330061
 Quadrupole XY       :          0.0000000            0.0000000            0.0000000
 Quadrupole XZ       :          0.0000000            0.0000000            0.0000000
 Quadrupole YY       :        -11.2330061            0.0000000          -11.2330061
 Quadrupole YZ       :          0.0000000            0.0000000            0.0000000
 Quadrupole ZZ       :        -49.3860739           34.4641098          -14.9219641
 Traceless XX        :         12.7176893          -11.4880366            1.2296526
 Traceless YY        :         12.7176893          -11.4880366            1.2296526
 Traceless ZZ        :        -25.4353785           22.9760732           -2.4593053

 ------------------------------------------------------------------------------------
  ==> Computing MBIS Charges <==

  Electron Count from Grid (Expected Number): 14.00000 (14.00000)
  Difference: -0.00000

  MBIS Charges: (a.u.)
   Center  Symbol  Z      Pop.       Charge
      1       N    7    7.578707   -0.578707
      2       C    6    6.421292   -0.421292

  MBIS Dipoles: [e a0]
   Center  Symbol  Z        X           Y           Z
      1       N    7   -0.000000   -0.000000   -0.030986
      2       C    6   -0.000000   -0.000000   -0.142310

  MBIS Quadrupoles: [e a0^2]
   Center  Symbol  Z      XX        XY        XZ        YY        YZ        ZZ
      1       N    7   -5.3721    0.0000    0.0000   -5.3721   -0.0000   -5.5088
      2       C    6   -5.8609    0.0000    0.0000   -5.8609    0.0000   -6.3879

  MBIS Octupoles: [e a0^3]
   Center  Symbol  Z      XXX       XXY       XXZ       XYY       XYZ       XZZ       YYY       YYZ       YZZ       ZZZ
      1       N    7   -0.0000   -0.0000   -0.2645   -0.0000    0.0000   -0.0000   -0.0000   -0.2645   -0.0000   -0.4967
      2       C    6   -0.0000   -0.0000    0.1328   -0.0000   -0.0000   -0.0000   -0.0000    0.1328   -0.0000    0.0900

  MBIS Radial Moments:
   Center  Symbol  Z      [a0^2]      [a0^3]      [a0^4]
      1       N    7   16.253138   37.798581   104.145157
      2       C    6   18.109630   49.070620   156.481746

  MBIS Valence Widths: [a0]
   Center  Symbol  Z     Width
      1       N    7    0.482504
      2       C    6    0.571510

*** tstop() called on Mac.lan at Sun Aug 10 17:41:17 2025
Module time:
	user time   =       3.76 seconds =       0.06 minutes
	system time =       1.72 seconds =       0.03 minutes
	total time  =          1 seconds =       0.02 minutes
Total time:
	user time   =      19.82 seconds =       0.33 minutes
	system time =       3.85 seconds =       0.06 minutes
	total time  =          3 seconds =       0.05 minutes

    Psi4 stopped on: Sunday, 10 August 2025 05:41PM
    Psi4 wall time for execution: 0:00:02.29

*** Psi4 exiting successfully. Buy a developer a beer!
