                               Psi4 1.9.1 release

  ==> Input File <==

--------------------------------------------------------------------------
molecule {
-1 2
O           0.000000           0.000000           0.000000
C           0.000000           0.000000           0.973047
}

set {
basis              cc-pvtz
reference          uks
maxiter            500
DAMPING_PERCENTAGE 1
E_CONVERGENCE      1.0E-8
D_CONVERGENCE      1.0E-8
DIIS_MAX_VECS      400
MBIS_MAXITER       8000
guess              read
}

E, wfn = energy('b3lyp', restart_file='last_wfn', return_wfn=True)
properties('b3lyp','MBIS_CHARGES', wfn=wfn)
wfn.to_file('last_wfn')
--------------------------------------------------------------------------

    Molecular point group: c2v
  Charge       = -1
  Multiplicity = 2
  Basis Set: CC-PVTZ
    Blend: CC-PVTZ
  Basis Set: (CC-PVTZ AUX)
    Blend: CC-PVTZ-JKFIT
  @DF-UKS Final Energy:  -113.13687387183202
    Total Energy =                       -113.1368738718320230
 Dipole X            :          0.0000000            0.0000000            0.0000000
 Dipole Y            :          0.0000000            0.0000000            0.0000000
 Dipole Z            :         -1.2146168           -0.0020041           -1.2166209
 Magnitude           :                                                    1.2166209
    Molecular point group: c2v

    Geometry (in Angstrom), charge = -1, multiplicity = 2:

       Center              X                  Y                   Z               Mass
    ------------   -----------------  -----------------  -----------------  -----------------
         O            0.000000000000     0.000000000000    -0.417095896118    15.994914619570
         C            0.000000000000     0.000000000000     0.555951103882    12.000000000000

  Charge       = -1
  Multiplicity = 2
  Basis Set: CC-PVTZ
    Blend: CC-PVTZ
  Basis Set: (CC-PVTZ AUX)
    Blend: CC-PVTZ-JKFIT

    Orbital Energies [Eh]
    ---------------------

    Alpha Occupied:

       1A1   -18.857856     2A1    -9.873610     3A1    -0.909161
       4A1    -0.259257     1B1    -0.219476     1B2    -0.208503
       5A1    -0.045698     2B1     0.253140

    Alpha Virtual:

       2B2     0.327627     6A1     0.405589     3B1     0.556024
       3B2     0.565532     7A1     0.566641     8A1     0.802146
       4B1     0.867812     4B2     0.872275     1A2     0.933246
       9A1     0.935558    10A1     1.061188     5B1     1.223970
       5B2     1.226787    11A1     1.461323     2A2     1.848546
      12A1     1.849432    13A1     1.890642     6B2     2.194232
       6B1     2.194442    14A1     2.218412     7B1     2.320771
       7B2     2.325095    15A1     2.938971     8B1     2.966765
       8B2     2.966969     3A2     3.217515    16A1     3.219005
       4A2     3.302289    17A1     3.304004     9B1     3.327973
       9B2     3.329651    18A1     3.397509    10B1     3.726678
      10B2     3.730617    19A1     3.951270    11B2     4.537814
      11B1     4.539426    20A1     5.332480    12B1     5.428792
      12B2     5.428830     5A2     6.065043    21A1     6.065584
      22A1     6.524983     6A2     6.575794    23A1     6.576814
      13B1     6.890495    13B2     6.892204    14B2     7.145165
      14B1     7.146125    24A1     7.236469    25A1     8.345247
      26A1    14.775342

    Beta Occupied:

       1A1   -18.849901     2A1    -9.868807     3A1    -0.897673
       4A1    -0.244058     1B2    -0.202909     1B1    -0.178018
       5A1    -0.021271

    Beta Virtual:

       2B2     0.336933     2B1     0.362535     6A1     0.410467
       3B2     0.570117     7A1     0.581657     3B1     0.591013
       8A1     0.808713     4B2     0.875485     4B1     0.890463
       9A1     0.957706     1A2     0.957949    10A1     1.073800
       5B2     1.229140     5B1     1.253284    11A1     1.467880
       2A2     1.864780    12A1     1.864806    13A1     1.900294
       6B2     2.198158     6B1     2.219962    14A1     2.233545
       7B2     2.328291     7B1     2.348359    15A1     2.947047
       8B2     2.991753     8B1     2.991807     3A2     3.239268
      16A1     3.239322    17A1     3.323049     4A2     3.324565
       9B2     3.329908     9B1     3.354187    18A1     3.407391
      10B2     3.735020    10B1     3.757834    19A1     3.959203
      11B2     4.541152    11B1     4.562870    20A1     5.342367
      12B2     5.445730    12B1     5.445734     5A2     6.078897
      21A1     6.078973    22A1     6.530818     6A2     6.602482
      23A1     6.602533    13B2     6.895805    13B1     6.915828
      14B2     7.147701    14B1     7.167645    24A1     7.245893
      25A1     8.355841    26A1    14.786361

    Final Occupation by Irrep:
             A1    A2    B1    B2
    DOCC [     5,    0,    1,    1 ]
    SOCC [     0,    0,    1,    0 ]
    NA   [     5,    0,    2,    1 ]
    NB   [     5,    0,    1,    1 ]

  @DF-UKS Final Energy:  -113.13687387251380

   => Energetics <=

    Nuclear Repulsion Energy =             26.1040896402332088
    One-Electron Energy =                -209.7365257468508446
    Two-Electron Energy =                  82.1328442630850049
    DFT Exchange-Correlation Energy =     -11.6372820289811720
    Empirical Dispersion Energy =           0.0000000000000000
    VV10 Nonlocal Energy =                  0.0000000000000000
    Total Energy =                       -113.1368738725138030

  UHF NO Occupations:
  HONO-2 :    1 B1 1.9997681
  HONO-1 :    5 A1 1.9995675
  HONO-0 :    2 B1 1.0000000
  LUNO+0 :    6 A1 0.0004325
  LUNO+1 :    3 B1 0.0002319
  LUNO+2 :    7 A1 0.0000504
  LUNO+3 :    2 B2 0.0000112

Computation Completed

Properties will be evaluated at   0.000000,   0.000000,   0.000000 [a0]

Properties computed using the B3LYP density matrix

 Multipole Moments:

 ------------------------------------------------------------------------------------
     Multipole            Electronic (a.u.)      Nuclear  (a.u.)        Total (a.u.)
 ------------------------------------------------------------------------------------

 L = 1.  Multiply by 2.5417464519 to convert [e a0] to [Debye]
 Dipole X            :          0.0000000            0.0000000            0.0000000
 Dipole Y            :          0.0000000            0.0000000            0.0000000
 Dipole Z            :         -1.2146168           -0.0020041           -1.2166209
 Magnitude           :                                                    1.2166209

 L = 2.  Multiply by 1.3450342976 to convert [e a0^2] to [Debye ang]
 Quadrupole XX       :        -12.0101197            0.0000000          -12.0101197
 Quadrupole XY       :          0.0000000            0.0000000            0.0000000
 Quadrupole XZ       :          0.0000000            0.0000000            0.0000000
 Quadrupole YY       :         -9.3880399            0.0000000           -9.3880399
 Quadrupole YZ       :          0.0000000            0.0000000            0.0000000
 Quadrupole ZZ       :        -24.8819239           11.5925395          -13.2893844
 Traceless XX        :          3.4165748           -3.8641798           -0.4476050
 Traceless YY        :          6.0386546           -3.8641798            2.1744748
 Traceless ZZ        :         -9.4552294            7.7283596           -1.7268698

 ------------------------------------------------------------------------------------
  ==> Computing MBIS Charges <==

  Electron Count from Grid (Expected Number): 15.00000 (15.00000)
  Difference:  0.00000

  MBIS Charges: (a.u.)
   Center  Symbol  Z      Pop.       Charge
      1       O    8    8.077966   -0.077966
      2       C    6    6.922034   -0.922034

  MBIS Dipoles: [e a0]
   Center  Symbol  Z        X           Y           Z
      1       O    8    0.000000    0.000000    0.072215
      2       C    6    0.000000    0.000000   -0.381604

  MBIS Quadrupoles: [e a0^2]
   Center  Symbol  Z      XX        XY        XZ        YY        YZ        ZZ
      1       O    8   -3.4774   -0.0000    0.0000   -3.2731   -0.0000   -3.7943
      2       C    6   -8.5327    0.0000   -0.0000   -6.1149    0.0000   -7.5133

  MBIS Octupoles: [e a0^3]
   Center  Symbol  Z      XXX       XXY       XXZ       XYY       XYZ       XZZ       YYY       YYZ       YZZ       ZZZ
      1       O    8    0.0000   -0.0000    0.0876   -0.0000   -0.0000   -0.0000   -0.0000    0.1489    0.0000    0.2858
      2       C    6   -0.0000    0.0000   -2.0909   -0.0000    0.0000   -0.0000    0.0000   -0.6262    0.0000   -0.5200

  MBIS Radial Moments:
   Center  Symbol  Z      [a0^2]      [a0^3]      [a0^4]
      1       O    8   10.544792   18.993654   41.265074
      2       C    6   22.160958   64.282647   218.021328

  MBIS Valence Widths: [a0]
   Center  Symbol  Z     Width
      1       O    8    0.369670
      2       C    6    0.598864

*** tstop() called on Mac.lan at Sun Aug 10 17:41:56 2025
Module time:
	user time   =       4.06 seconds =       0.07 minutes
	system time =       2.23 seconds =       0.04 minutes
	total time  =          0 seconds =       0.00 minutes
Total time:
	user time   =      18.03 seconds =       0.30 minutes
	system time =       4.68 seconds =       0.08 minutes
	total time  =          2 seconds =       0.03 minutes

    Psi4 stopped on: Sunday, 10 August 2025 05:41PM
    Psi4 wall time for execution: 0:00:02.19

*** Psi4 exiting successfully. Buy a developer a beer!
