                               Psi4 1.9.1 release

  ==> Input File <==

--------------------------------------------------------------------------
molecule {
-1 1
O           0.000000           0.000000           0.000000
H           0.000000           0.000000           0.476613
}

set {
basis              cc-pvtz
reference          uks
maxiter            500
DAMPING_PERCENTAGE 1
E_CONVERGENCE      1.0E-8
D_CONVERGENCE      1.0E-8
DIIS_MAX_VECS      400
MBIS_MAXITER       8000
guess              read
}

E, wfn = energy('b3lyp', restart_file='last_wfn', return_wfn=True)
properties('b3lyp','MBIS_CHARGES', wfn=wfn)
wfn.to_file('last_wfn')
--------------------------------------------------------------------------

    Molecular point group: c2v
  Charge       = -1
  Multiplicity = 1
  Basis Set: CC-PVTZ
    Blend: CC-PVTZ
  Basis Set: (CC-PVTZ AUX)
    Blend: CC-PVTZ-JKFIT
  @DF-UKS Final Energy:   -74.87198982216985
    Total Energy =                        -74.8719898221698514
 Dipole X            :          0.0000000            0.0000000            0.0000000
 Dipole Y            :          0.0000000            0.0000000            0.0000000
 Dipole Z            :          0.2183667            0.4201900            0.6385568
 Magnitude           :                                                    0.6385568
    Molecular point group: c2v

    Geometry (in Angstrom), charge = -1, multiplicity = 1:

       Center              X                  Y                   Z               Mass
    ------------   -----------------  -----------------  -----------------  -----------------
         O            0.000000000000     0.000000000000    -0.028250889087    15.994914619570
         H            0.000000000000     0.000000000000     0.448362110913     1.007825032230

  Charge       = -1
  Multiplicity = 1
  Basis Set: CC-PVTZ
    Blend: CC-PVTZ
  Basis Set: (CC-PVTZ AUX)
    Blend: CC-PVTZ-JKFIT

    Orbital Energies [Eh]
    ---------------------

    Alpha Occupied:

       1A1   -18.614148     2A1    -0.721529     3A1    -0.051839
       1B1     0.110612     1B2     0.110612

    Alpha Virtual:

       4A1     0.337023     5A1     0.779106     2B2     0.868956
       2B1     0.868956     6A1     1.100634     7A1     1.168424
       3B2     1.221205     3B1     1.221205     8A1     1.885163
       1A2     1.885163     9A1     2.210108     4B2     2.317735
       4B1     2.317735    10A1     2.809932    11A1     3.554515
       5B2     3.655552     5B1     3.655552    12A1     3.918058
       2A2     3.918058     6B1     4.110897     6B2     4.110897
      13A1     4.365336    14A1     5.361331     7B2     5.588820
       7B1     5.588820     8B2     5.641813     8B1     5.641813
      15A1     6.423405     3A2     6.423405     9B1     6.633370
       9B2     6.633370    16A1     6.708482    17A1     7.039555
       4A2     7.039555    18A1     8.882408    10B2     9.503685
      10B1     9.503685    19A1    10.284819    20A1    18.471167

    Beta Occupied:

       1A1   -18.614148     2A1    -0.721529     3A1    -0.051839
       1B1     0.110612     1B2     0.110612

    Beta Virtual:

       4A1     0.337023     5A1     0.779106     2B2     0.868956
       2B1     0.868956     6A1     1.100634     7A1     1.168424
       3B2     1.221205     3B1     1.221205     8A1     1.885163
       1A2     1.885163     9A1     2.210108     4B2     2.317735
       4B1     2.317735    10A1     2.809932    11A1     3.554515
       5B2     3.655552     5B1     3.655552    12A1     3.918058
       2A2     3.918058     6B1     4.110897     6B2     4.110897
      13A1     4.365336    14A1     5.361331     7B2     5.588820
       7B1     5.588820     8B2     5.641813     8B1     5.641813
      15A1     6.423405     3A2     6.423405     9B1     6.633370
       9B2     6.633370    16A1     6.708482    17A1     7.039555
       4A2     7.039555    18A1     8.882408    10B2     9.503685
      10B1     9.503685    19A1    10.284819    20A1    18.471167

    Final Occupation by Irrep:
             A1    A2    B1    B2
    DOCC [     3,    0,    1,    1 ]
    SOCC [     0,    0,    0,    0 ]
    NA   [     3,    0,    1,    1 ]
    NB   [     3,    0,    1,    1 ]

  @DF-UKS Final Energy:   -74.87198982193553

   => Energetics <=

    Nuclear Repulsion Energy =              8.8822958781233421
    One-Electron Energy =                -123.5807222090942901
    Two-Electron Energy =                  47.6258126145801626
    DFT Exchange-Correlation Energy =      -7.7993761055447344
    Empirical Dispersion Energy =           0.0000000000000000
    VV10 Nonlocal Energy =                  0.0000000000000000
    Total Energy =                        -74.8719898219355144

  UHF NO Occupations:
  HONO-2 :    2 A1 2.0000000
  HONO-1 :    1 B1 2.0000000
  HONO-0 :    3 A1 2.0000000
  LUNO+0 :    4 A1 0.0000000
  LUNO+1 :    5 A1 0.0000000
  LUNO+2 :    6 A1 0.0000000
  LUNO+3 :    7 A1 0.0000000

Computation Completed

Properties will be evaluated at   0.000000,   0.000000,   0.000000 [a0]

Properties computed using the B3LYP density matrix

 Multipole Moments:

 ------------------------------------------------------------------------------------
     Multipole            Electronic (a.u.)      Nuclear  (a.u.)        Total (a.u.)
 ------------------------------------------------------------------------------------

 L = 1.  Multiply by 2.5417464519 to convert [e a0] to [Debye]
 Dipole X            :          0.0000000            0.0000000            0.0000000
 Dipole Y            :          0.0000000            0.0000000            0.0000000
 Dipole Z            :          0.2183667            0.4201900            0.6385568
 Magnitude           :                                                    0.6385568

 L = 2.  Multiply by 1.3450342976 to convert [e a0^2] to [Debye ang]
 Quadrupole XX       :         -5.8991381            0.0000000           -5.8991381
 Quadrupole XY       :          0.0000000            0.0000000            0.0000000
 Quadrupole XZ       :          0.0000000            0.0000000            0.0000000
 Quadrupole YY       :         -5.8991381            0.0000000           -5.8991381
 Quadrupole YZ       :          0.0000000            0.0000000            0.0000000
 Quadrupole ZZ       :         -5.6490671            0.7406870           -4.9083801
 Traceless XX        :         -0.0833570           -0.2468957           -0.3302527
 Traceless YY        :         -0.0833570           -0.2468957           -0.3302527
 Traceless ZZ        :          0.1667140            0.4937913            0.6605053

 ------------------------------------------------------------------------------------
  ==> Computing MBIS Charges <==

  Electron Count from Grid (Expected Number): 10.00000 (10.00000)
  Difference: -0.00000

  MBIS Charges: (a.u.)
   Center  Symbol  Z      Pop.       Charge
      1       O    8    9.484806   -1.484806
      2       H    1    0.515194    0.484806

  MBIS Dipoles: [e a0]
   Center  Symbol  Z        X           Y           Z
      1       O    8   -0.000000   -0.000000    0.134659
      2       H    1    0.000000   -0.000000    0.013863

  MBIS Quadrupoles: [e a0^2]
   Center  Symbol  Z      XX        XY        XZ        YY        YZ        ZZ
      1       O    8   -5.8166   -0.0000    0.0000   -5.8166   -0.0000   -5.1837
      2       H    1   -0.0826    0.0000   -0.0000   -0.0826    0.0000   -0.0776

  MBIS Octupoles: [e a0^3]
   Center  Symbol  Z      XXX       XXY       XXZ       XYY       XYZ       XZZ       YYY       YYZ       YZZ       ZZZ
      1       O    8    0.0000   -0.0000    0.3569    0.0000   -0.0000   -0.0000   -0.0000    0.3569   -0.0000    0.8929
      2       H    1    0.0000    0.0000    0.0027    0.0000    0.0000   -0.0000    0.0000    0.0027   -0.0000    0.0064

  MBIS Radial Moments:
   Center  Symbol  Z      [a0^2]      [a0^3]      [a0^4]
      1       O    8   16.816864   35.194508   87.259109
      2       H    1    0.242709    0.236678    0.277898

  MBIS Valence Widths: [a0]
   Center  Symbol  Z     Width
      1       O    8    0.423504
      2       H    1    0.200242

*** tstop() called on Mac.lan at Sun Aug 10 17:37:34 2025
Module time:
	user time   =       3.20 seconds =       0.05 minutes
	system time =       3.34 seconds =       0.06 minutes
	total time  =          1 seconds =       0.02 minutes
Total time:
	user time   =      12.11 seconds =       0.20 minutes
	system time =       5.67 seconds =       0.09 minutes
	total time  =          2 seconds =       0.03 minutes

    Psi4 stopped on: Sunday, 10 August 2025 05:37PM
    Psi4 wall time for execution: 0:00:01.72

*** Psi4 exiting successfully. Buy a developer a beer!
