                               Psi4 1.9.1 release

  ==> Input File <==

--------------------------------------------------------------------------
molecule {
-1 1
N           0.000000           0.000000           0.000000
C           0.000000           0.000000           1.151437
}

set {
basis              cc-pvtz
reference          uks
maxiter            500
DAMPING_PERCENTAGE 1
E_CONVERGENCE      1.0E-8
D_CONVERGENCE      1.0E-8
DIIS_MAX_VECS      400
MBIS_MAXITER       8000
guess              read
}

E, wfn = energy('b3lyp', restart_file='last_wfn', return_wfn=True)
properties('b3lyp','MBIS_CHARGES', wfn=wfn)
wfn.to_file('last_wfn')
--------------------------------------------------------------------------

    Molecular point group: c2v
  Charge       = -1
  Multiplicity = 1
  Basis Set: CC-PVTZ
    Blend: CC-PVTZ
  Basis Set: (CC-PVTZ AUX)
    Blend: CC-PVTZ-JKFIT
  @DF-UKS Final Energy:   -92.88148388144657
    Total Energy =                        -92.8814838814465702
 Dipole X            :          0.0000000            0.0000000            0.0000000
 Dipole Y            :          0.0000000            0.0000000            0.0000000
 Dipole Z            :         -0.2686909            0.0015434           -0.2671476
 Magnitude           :                                                    0.2671476
    Molecular point group: c2v

    Geometry (in Angstrom), charge = -1, multiplicity = 1:

       Center              X                  Y                   Z               Mass
    ------------   -----------------  -----------------  -----------------  -----------------
         N            0.000000000000     0.000000000000    -0.531369637207    14.003074004430
         C            0.000000000000     0.000000000000     0.620067362793    12.000000000000

  Charge       = -1
  Multiplicity = 1
  Basis Set: CC-PVTZ
    Blend: CC-PVTZ
  Basis Set: (CC-PVTZ AUX)
    Blend: CC-PVTZ-JKFIT

    Orbital Energies [Eh]
    ---------------------

    Alpha Occupied:

       1A1   -14.007434     2A1    -9.875361     3A1    -0.605308
       4A1    -0.131395     1B2    -0.056047     1B1    -0.056047
       5A1    -0.018267

    Alpha Virtual:

       2B1     0.318247     2B2     0.318247     6A1     0.409729
       3B1     0.567218     3B2     0.567218     7A1     0.570577
       8A1     0.708223     4B1     0.785246     4B2     0.785246
       9A1     0.935498     1A2     0.935498    10A1     0.975215
       5B1     1.163850     5B2     1.163850    11A1     1.172491
       2A2     1.468702    12A1     1.468702    13A1     1.644258
       6B2     1.827150     6B1     1.827150    14A1     2.086023
       7B2     2.315360     7B1     2.315360    15A1     2.576966
       8B1     2.971723     8B2     2.971723    16A1     3.067603
       3A2     3.067604    17A1     3.101732     9B2     3.170644
       9B1     3.170644    10B2     3.286599    10B1     3.286599
      18A1     3.303546     4A2     3.303546    19A1     3.517121
      11B2     3.776923    11B1     3.776923    12B2     4.254610
      12B1     4.254610    20A1     4.286022     5A2     4.752252
      21A1     4.752254     6A2     4.887083    22A1     4.887087
      13B2     5.155178    13B1     5.155178    23A1     5.346468
      24A1     5.681823    14B2     5.928326    14B1     5.928326
      25A1     6.374858    26A1    13.106724

    Beta Occupied:

       1A1   -14.007434     2A1    -9.875361     3A1    -0.605308
       4A1    -0.131395     1B2    -0.056047     1B1    -0.056047
       5A1    -0.018267

    Beta Virtual:

       2B1     0.318247     2B2     0.318247     6A1     0.409729
       3B1     0.567218     3B2     0.567218     7A1     0.570577
       8A1     0.708223     4B1     0.785246     4B2     0.785246
       9A1     0.935498     1A2     0.935498    10A1     0.975215
       5B1     1.163850     5B2     1.163850    11A1     1.172491
       2A2     1.468702    12A1     1.468702    13A1     1.644258
       6B2     1.827150     6B1     1.827150    14A1     2.086023
       7B2     2.315360     7B1     2.315360    15A1     2.576966
       8B1     2.971723     8B2     2.971723    16A1     3.067603
       3A2     3.067604    17A1     3.101732     9B2     3.170644
       9B1     3.170644    10B2     3.286599    10B1     3.286599
      18A1     3.303546     4A2     3.303546    19A1     3.517121
      11B2     3.776923    11B1     3.776923    12B2     4.254610
      12B1     4.254610    20A1     4.286022     5A2     4.752252
      21A1     4.752254     6A2     4.887083    22A1     4.887087
      13B2     5.155178    13B1     5.155178    23A1     5.346468
      24A1     5.681823    14B2     5.928326    14B1     5.928326
      25A1     6.374858    26A1    13.106724

    Final Occupation by Irrep:
             A1    A2    B1    B2
    DOCC [     5,    0,    1,    1 ]
    SOCC [     0,    0,    0,    0 ]
    NA   [     5,    0,    1,    1 ]
    NB   [     5,    0,    1,    1 ]

  @DF-UKS Final Energy:   -92.88148387905328

   => Energetics <=

    Nuclear Repulsion Energy =             19.3023524935710746
    One-Electron Energy =                -167.5938337372490423
    Two-Electron Energy =                  65.5142039471736979
    DFT Exchange-Correlation Energy =     -10.1042065825490130
    Empirical Dispersion Energy =           0.0000000000000000
    VV10 Nonlocal Energy =                  0.0000000000000000
    Total Energy =                        -92.8814838790532775

  UHF NO Occupations:
  HONO-2 :    1 B2 2.0000000
  HONO-1 :    4 A1 2.0000000
  HONO-0 :    5 A1 2.0000000
  LUNO+0 :    6 A1 0.0000000
  LUNO+1 :    7 A1 0.0000000
  LUNO+2 :    8 A1 0.0000000
  LUNO+3 :    9 A1 0.0000000

Computation Completed

Properties will be evaluated at   0.000000,   0.000000,   0.000000 [a0]

Properties computed using the B3LYP density matrix

 Multipole Moments:

 ------------------------------------------------------------------------------------
     Multipole            Electronic (a.u.)      Nuclear  (a.u.)        Total (a.u.)
 ------------------------------------------------------------------------------------

 L = 1.  Multiply by 2.5417464519 to convert [e a0] to [Debye]
 Dipole X            :          0.0000000            0.0000000            0.0000000
 Dipole Y            :          0.0000000            0.0000000            0.0000000
 Dipole Z            :         -0.2686909            0.0015434           -0.2671476
 Magnitude           :                                                    0.2671476

 L = 2.  Multiply by 1.3450342976 to convert [e a0^2] to [Debye ang]
 Quadrupole XX       :        -10.2823479            0.0000000          -10.2823479
 Quadrupole XY       :          0.0000000            0.0000000            0.0000000
 Quadrupole XZ       :          0.0000000            0.0000000            0.0000000
 Quadrupole YY       :        -10.2823479            0.0000000          -10.2823479
 Quadrupole YZ       :          0.0000000            0.0000000            0.0000000
 Quadrupole ZZ       :        -29.0794271           15.2962171          -13.7832100
 Traceless XX        :          6.2656931           -5.0987390            1.1669540
 Traceless YY        :          6.2656931           -5.0987390            1.1669540
 Traceless ZZ        :        -12.5313862           10.1974781           -2.3339081

 ------------------------------------------------------------------------------------
  ==> Computing MBIS Charges <==

  Electron Count from Grid (Expected Number): 14.00000 (14.00000)
  Difference:  0.00000

  MBIS Charges: (a.u.)
   Center  Symbol  Z      Pop.       Charge
      1       N    7    7.500562   -0.500562
      2       C    6    6.499438   -0.499438

  MBIS Dipoles: [e a0]
   Center  Symbol  Z        X           Y           Z
      1       N    7   -0.000000    0.000000    0.091469
      2       C    6   -0.000000    0.000000   -0.276032

  MBIS Quadrupoles: [e a0^2]
   Center  Symbol  Z      XX        XY        XZ        YY        YZ        ZZ
      1       N    7   -4.7350   -0.0000   -0.0000   -4.7350    0.0000   -5.3015
      2       C    6   -5.5473    0.0000    0.0000   -5.5473    0.0000   -6.4606

  MBIS Octupoles: [e a0^3]
   Center  Symbol  Z      XXX       XXY       XXZ       XYY       XYZ       XZZ       YYY       YYZ       YZZ       ZZZ
      1       N    7   -0.0000   -0.0000    0.1442   -0.0000    0.0000    0.0000    0.0000    0.1442    0.0000    0.4681
      2       C    6   -0.0000   -0.0000   -0.3795   -0.0000    0.0000    0.0000    0.0000   -0.3795    0.0000   -0.9797

  MBIS Radial Moments:
   Center  Symbol  Z      [a0^2]      [a0^3]      [a0^4]
      1       N    7   14.771644   33.133732   88.730100
      2       C    6   17.555227   46.642123   146.051337

  MBIS Valence Widths: [a0]
   Center  Symbol  Z     Width
      1       N    7    0.460966
      2       C    6    0.555941

*** tstop() called on Mac.lan at Sun Aug 10 17:40:22 2025
Module time:
	user time   =       3.59 seconds =       0.06 minutes
	system time =       2.71 seconds =       0.05 minutes
	total time  =          1 seconds =       0.02 minutes
Total time:
	user time   =      22.74 seconds =       0.38 minutes
	system time =       5.26 seconds =       0.09 minutes
	total time  =          3 seconds =       0.05 minutes

    Psi4 stopped on: Sunday, 10 August 2025 05:40PM
    Psi4 wall time for execution: 0:00:02.78

*** Psi4 exiting successfully. Buy a developer a beer!
