                               Psi4 1.9.1 release

  ==> Input File <==

--------------------------------------------------------------------------
molecule {
-1 1
N           0.000000           0.000000           0.000000
C           0.000000           0.000000           0.986605
}

set {
basis              cc-pvtz
reference          uks
maxiter            500
DAMPING_PERCENTAGE 1
E_CONVERGENCE      1.0E-8
D_CONVERGENCE      1.0E-8
DIIS_MAX_VECS      400
MBIS_MAXITER       8000
guess              read
}

E, wfn = energy('b3lyp', restart_file='last_wfn', return_wfn=True)
properties('b3lyp','MBIS_CHARGES', wfn=wfn)
wfn.to_file('last_wfn')
--------------------------------------------------------------------------

    Molecular point group: c2v
  Charge       = -1
  Multiplicity = 1
  Basis Set: CC-PVTZ
    Blend: CC-PVTZ
  Basis Set: (CC-PVTZ AUX)
    Blend: CC-PVTZ-JKFIT
  @DF-UKS Final Energy:   -92.77862330404405
    Total Energy =                        -92.7786233040440464
 Dipole X            :          0.0000000            0.0000000            0.0000000
 Dipole Y            :          0.0000000            0.0000000            0.0000000
 Dipole Z            :         -0.3506489            0.0013224           -0.3493265
 Magnitude           :                                                    0.3493265
    Molecular point group: c2v

    Geometry (in Angstrom), charge = -1, multiplicity = 1:

       Center              X                  Y                   Z               Mass
    ------------   -----------------  -----------------  -----------------  -----------------
         N            0.000000000000     0.000000000000    -0.455302323025    14.003074004430
         C            0.000000000000     0.000000000000     0.531302676975    12.000000000000

  Charge       = -1
  Multiplicity = 1
  Basis Set: CC-PVTZ
    Blend: CC-PVTZ
  Basis Set: (CC-PVTZ AUX)
    Blend: CC-PVTZ-JKFIT

    Orbital Energies [Eh]
    ---------------------

    Alpha Occupied:

       1A1   -13.958616     2A1    -9.812687     3A1    -0.652486
       4A1    -0.098805     1B1    -0.091373     1B2    -0.091373
       5A1    -0.007762

    Alpha Virtual:

       2B1     0.371405     2B2     0.371405     6A1     0.417124
       7A1     0.565024     3B1     0.571752     3B2     0.571752
       8A1     0.714734     4B1     0.802387     4B2     0.802387
       9A1     0.942067     1A2     0.942067    10A1     1.112781
       5B1     1.233949     5B2     1.233949    11A1     1.246528
      12A1     1.520216     2A2     1.520216    13A1     1.836420
       6B1     1.868895     6B2     1.868895    14A1     2.274393
       7B1     2.276942     7B2     2.276942    15A1     2.682221
       8B1     2.972137     8B2     2.972137    16A1     3.140725
      17A1     3.142666     3A2     3.142667     9B1     3.267267
       9B2     3.267267    18A1     3.334889     4A2     3.334889
      10B2     3.436346    10B1     3.436346    19A1     3.633859
      11B1     3.889754    11B2     3.889754    12B1     4.329045
      12B2     4.329045    20A1     4.720750    21A1     4.856041
       5A2     4.856041    22A1     5.138899     6A2     5.138899
      13B1     5.249503    13B2     5.249503    23A1     5.653170
      24A1     5.901928    14B2     6.394408    14B1     6.394408
      25A1     7.494979    26A1    15.786811

    Beta Occupied:

       1A1   -13.958616     2A1    -9.812687     3A1    -0.652486
       4A1    -0.098805     1B1    -0.091373     1B2    -0.091373
       5A1    -0.007762

    Beta Virtual:

       2B1     0.371405     2B2     0.371405     6A1     0.417124
       7A1     0.565024     3B1     0.571752     3B2     0.571752
       8A1     0.714734     4B1     0.802387     4B2     0.802387
       9A1     0.942067     1A2     0.942067    10A1     1.112781
       5B1     1.233949     5B2     1.233949    11A1     1.246528
      12A1     1.520216     2A2     1.520216    13A1     1.836420
       6B1     1.868895     6B2     1.868895    14A1     2.274393
       7B1     2.276942     7B2     2.276942    15A1     2.682221
       8B1     2.972137     8B2     2.972137    16A1     3.140725
      17A1     3.142666     3A2     3.142667     9B1     3.267267
       9B2     3.267267    18A1     3.334889     4A2     3.334889
      10B2     3.436346    10B1     3.436346    19A1     3.633859
      11B1     3.889754    11B2     3.889754    12B1     4.329045
      12B2     4.329045    20A1     4.720750    21A1     4.856041
       5A2     4.856041    22A1     5.138899     6A2     5.138899
      13B1     5.249503    13B2     5.249503    23A1     5.653170
      24A1     5.901928    14B2     6.394408    14B1     6.394408
      25A1     7.494979    26A1    15.786811

    Final Occupation by Irrep:
             A1    A2    B1    B2
    DOCC [     5,    0,    1,    1 ]
    SOCC [     0,    0,    0,    0 ]
    NA   [     5,    0,    1,    1 ]
    NB   [     5,    0,    1,    1 ]

  @DF-UKS Final Energy:   -92.77862330381723

   => Energetics <=

    Nuclear Repulsion Energy =             22.5271946200759210
    One-Electron Energy =                -173.7951234967531491
    Two-Electron Energy =                  68.7616939751009681
    DFT Exchange-Correlation Energy =     -10.2723884022409742
    Empirical Dispersion Energy =           0.0000000000000000
    VV10 Nonlocal Energy =                  0.0000000000000000
    Total Energy =                        -92.7786233038172270

  UHF NO Occupations:
  HONO-2 :    4 A1 2.0000000
  HONO-1 :    1 B2 2.0000000
  HONO-0 :    5 A1 2.0000000
  LUNO+0 :    6 A1 0.0000000
  LUNO+1 :    7 A1 0.0000000
  LUNO+2 :    8 A1 0.0000000
  LUNO+3 :    9 A1 0.0000000

Computation Completed

Properties will be evaluated at   0.000000,   0.000000,   0.000000 [a0]

Properties computed using the B3LYP density matrix

 Multipole Moments:

 ------------------------------------------------------------------------------------
     Multipole            Electronic (a.u.)      Nuclear  (a.u.)        Total (a.u.)
 ------------------------------------------------------------------------------------

 L = 1.  Multiply by 2.5417464519 to convert [e a0] to [Debye]
 Dipole X            :          0.0000000            0.0000000            0.0000000
 Dipole Y            :          0.0000000            0.0000000            0.0000000
 Dipole Z            :         -0.3506489            0.0013224           -0.3493265
 Magnitude           :                                                    0.3493265

 L = 2.  Multiply by 1.3450342976 to convert [e a0^2] to [Debye ang]
 Quadrupole XX       :         -9.8498739            0.0000000           -9.8498739
 Quadrupole XY       :          0.0000000            0.0000000            0.0000000
 Quadrupole XZ       :          0.0000000            0.0000000            0.0000000
 Quadrupole YY       :         -9.8498739            0.0000000           -9.8498739
 Quadrupole YZ       :          0.0000000            0.0000000            0.0000000
 Quadrupole ZZ       :        -24.5521418           11.2302727          -13.3218691
 Traceless XX        :          4.9007560           -3.7434242            1.1573318
 Traceless YY        :          4.9007560           -3.7434242            1.1573318
 Traceless ZZ        :         -9.8015120            7.4868485           -2.3146635

 ------------------------------------------------------------------------------------
  ==> Computing MBIS Charges <==

  Electron Count from Grid (Expected Number): 14.00000 (14.00000)
  Difference: -0.00000

  MBIS Charges: (a.u.)
   Center  Symbol  Z      Pop.       Charge
      1       N    7    7.454213   -0.454213
      2       C    6    6.545786   -0.545786

  MBIS Dipoles: [e a0]
   Center  Symbol  Z        X           Y           Z
      1       N    7    0.000000   -0.000000    0.104495
      2       C    6    0.000000    0.000000   -0.296647

  MBIS Quadrupoles: [e a0^2]
   Center  Symbol  Z      XX        XY        XZ        YY        YZ        ZZ
      1       N    7   -4.4200   -0.0000   -0.0000   -4.4200    0.0000   -5.1251
      2       C    6   -5.4299    0.0000    0.0000   -5.4299    0.0000   -6.5348

  MBIS Octupoles: [e a0^3]
   Center  Symbol  Z      XXX       XXY       XXZ       XYY       XYZ       XZZ       YYY       YYZ       YZZ       ZZZ
      1       N    7   -0.0000   -0.0000    0.2383    0.0000    0.0000   -0.0000    0.0000    0.2383    0.0000    0.7381
      2       C    6   -0.0000   -0.0000   -0.5439   -0.0000    0.0000    0.0000    0.0000   -0.5439    0.0000   -1.3548

  MBIS Radial Moments:
   Center  Symbol  Z      [a0^2]      [a0^3]      [a0^4]
      1       N    7   13.965089   30.722893   80.999697
      2       C    6   17.394611   46.146182   144.549537

  MBIS Valence Widths: [a0]
   Center  Symbol  Z     Width
      1       N    7    0.448500
      2       C    6    0.549025

*** tstop() called on Mac.lan at Sun Aug 10 17:39:13 2025
Module time:
	user time   =       4.07 seconds =       0.07 minutes
	system time =       2.67 seconds =       0.04 minutes
	total time  =          1 seconds =       0.02 minutes
Total time:
	user time   =      16.73 seconds =       0.28 minutes
	system time =       5.10 seconds =       0.08 minutes
	total time  =          2 seconds =       0.03 minutes

    Psi4 stopped on: Sunday, 10 August 2025 05:39PM
    Psi4 wall time for execution: 0:00:02.12

*** Psi4 exiting successfully. Buy a developer a beer!
