                               Psi4 1.9.1 release

  ==> Input File <==

--------------------------------------------------------------------------
molecule {
-1 2
O           0.000000           0.000000           0.000000
C           0.000000           0.000000           0.714816
}

set {
basis              cc-pvtz
reference          uks
maxiter            500
DAMPING_PERCENTAGE 1
E_CONVERGENCE      1.0E-8
D_CONVERGENCE      1.0E-8
DIIS_MAX_VECS      400
MBIS_MAXITER       8000
guess              read
}

E, wfn = energy('b3lyp', restart_file='last_wfn', return_wfn=True)
properties('b3lyp','MBIS_CHARGES', wfn=wfn)
wfn.to_file('last_wfn')
--------------------------------------------------------------------------

    Molecular point group: c2v
  Charge       = -1
  Multiplicity = 2
  Basis Set: CC-PVTZ
    Blend: CC-PVTZ
  Basis Set: (CC-PVTZ AUX)
    Blend: CC-PVTZ-JKFIT
  @DF-UKS Final Energy:  -111.98152207031400
    Total Energy =                       -111.9815220703140000
 Dipole X            :          0.0000000            0.0000000            0.0000000
 Dipole Y            :          0.0000000            0.0000000            0.0000000
 Dipole Z            :         -1.7191709           -0.0014723           -1.7206432
 Magnitude           :                                                    1.7206432
    Molecular point group: c2v

    Geometry (in Angstrom), charge = -1, multiplicity = 2:

       Center              X                  Y                   Z               Mass
    ------------   -----------------  -----------------  -----------------  -----------------
         O            0.000000000000     0.000000000000    -0.306405363851    15.994914619570
         C            0.000000000000     0.000000000000     0.408410636149    12.000000000000

  Charge       = -1
  Multiplicity = 2
  Basis Set: CC-PVTZ
    Blend: CC-PVTZ
  Basis Set: (CC-PVTZ AUX)
    Blend: CC-PVTZ-JKFIT

    Orbital Energies [Eh]
    ---------------------

    Alpha Occupied:

       1A1   -18.898292     2A1    -9.915097     3A1    -1.014047
       1B1    -0.405562     1B2    -0.404914     4A1    -0.290090
       5A1    -0.042471     2B1     0.306752

    Alpha Virtual:

       2B2     0.368806     6A1     0.389647     7A1     0.541019
       3B2     0.580302     3B1     0.586544     8A1     0.785999
       4B1     0.862194     4B2     0.864265     1A2     0.908302
       9A1     0.910698    10A1     1.140209     5B2     1.348371
       5B1     1.349073    11A1     1.601154     6B2     1.879134
       6B1     1.885305     2A2     1.904309    12A1     1.905499
      13A1     2.053738    14A1     2.596563     7B2     2.600295
       7B1     2.603180     8B1     2.935055     8B2     2.935108
      15A1     3.073623     3A2     3.174569    16A1     3.175414
       9B2     3.363807     9B1     3.368454    17A1     3.478290
       4A2     3.478700    18A1     3.503650    10B2     4.286452
      10B1     4.287021    11B2     4.532424    11B1     4.536935
      19A1     4.697285    12B1     5.547264    12B2     5.547273
      20A1     6.120719     5A2     6.494430    21A1     6.494860
       6A2     6.759554    22A1     6.759752    13B2     6.881980
      13B1     6.884548    23A1     6.911999    24A1     7.828101
      14B2     8.068841    14B1     8.069655    25A1    10.469535
      26A1    17.907280

    Beta Occupied:

       1A1   -18.893577     2A1    -9.916044     3A1    -1.008149
       1B2    -0.402786     1B1    -0.387890     4A1    -0.284372
       5A1    -0.030750

    Beta Virtual:

       2B2     0.381080     6A1     0.399338     2B1     0.406196
       7A1     0.557817     3B2     0.578641     3B1     0.592059
       8A1     0.793158     4B2     0.866578     4B1     0.881721
       1A2     0.927594     9A1     0.928190    10A1     1.146774
       5B2     1.350066     5B1     1.370865    11A1     1.604593
       6B2     1.879409     6B1     1.895746     2A2     1.916296
      12A1     1.916300    13A1     2.058754     7B2     2.600508
      14A1     2.603091     7B1     2.611363     8B2     2.942225
       8B1     2.942243    15A1     3.074967     3A2     3.180567
      16A1     3.180941     9B2     3.361512     9B1     3.377222
      17A1     3.480303     4A2     3.482966    18A1     3.506737
      10B2     4.289177    10B1     4.304671    11B2     4.532136
      11B1     4.545414    19A1     4.701823    12B2     5.555238
      12B1     5.555241    20A1     6.123376     5A2     6.509109
      21A1     6.509156    22A1     6.765680     6A2     6.765777
      13B2     6.883113    13B1     6.893917    23A1     6.915482
      24A1     7.830434    14B2     8.070180    14B1     8.080915
      25A1    10.474353    26A1    17.912840

    Final Occupation by Irrep:
             A1    A2    B1    B2
    DOCC [     5,    0,    1,    1 ]
    SOCC [     0,    0,    1,    0 ]
    NA   [     5,    0,    2,    1 ]
    NB   [     5,    0,    1,    1 ]

  @DF-UKS Final Energy:  -111.98152207032254

   => Energetics <=

    Nuclear Repulsion Energy =             35.5343278720118221
    One-Electron Energy =                -224.8165918030754824
    Two-Electron Energy =                  89.3244437677352181
    DFT Exchange-Correlation Energy =     -12.0237019069941002
    Empirical Dispersion Energy =           0.0000000000000000
    VV10 Nonlocal Energy =                  0.0000000000000000
    Total Energy =                       -111.9815220703225407

  UHF NO Occupations:
  HONO-2 :    1 B1 1.9999265
  HONO-1 :    5 A1 1.9993634
  HONO-0 :    2 B1 1.0000000
  LUNO+0 :    6 A1 0.0006366
  LUNO+1 :    3 B1 0.0000735
  LUNO+2 :    7 A1 0.0000154
  LUNO+3 :    2 B2 0.0000048

Computation Completed

Properties will be evaluated at   0.000000,   0.000000,   0.000000 [a0]

Properties computed using the B3LYP density matrix

 Multipole Moments:

 ------------------------------------------------------------------------------------
     Multipole            Electronic (a.u.)      Nuclear  (a.u.)        Total (a.u.)
 ------------------------------------------------------------------------------------

 L = 1.  Multiply by 2.5417464519 to convert [e a0] to [Debye]
 Dipole X            :          0.0000000            0.0000000            0.0000000
 Dipole Y            :          0.0000000            0.0000000            0.0000000
 Dipole Z            :         -1.7191709           -0.0014723           -1.7206432
 Magnitude           :                                                    1.7206432

 L = 2.  Multiply by 1.3450342976 to convert [e a0^2] to [Debye ang]
 Quadrupole XX       :        -14.0214915            0.0000000          -14.0214915
 Quadrupole XY       :          0.0000000            0.0000000            0.0000000
 Quadrupole XZ       :          0.0000000            0.0000000            0.0000000
 Quadrupole YY       :         -9.3601847            0.0000000           -9.3601847
 Quadrupole YZ       :          0.0000000            0.0000000            0.0000000
 Quadrupole ZZ       :        -18.9124952            6.2560394          -12.6564558
 Traceless XX        :          0.0765656           -2.0853465           -2.0087808
 Traceless YY        :          4.7378724           -2.0853465            2.6525260
 Traceless ZZ        :         -4.8144381            4.1706929           -0.6437451

 ------------------------------------------------------------------------------------
  ==> Computing MBIS Charges <==

  Electron Count from Grid (Expected Number): 15.00000 (15.00000)
  Difference:  0.00000

  MBIS Charges: (a.u.)
   Center  Symbol  Z      Pop.       Charge
      1       O    8    7.691230    0.308770
      2       C    6    7.308772   -1.308772

  MBIS Dipoles: [e a0]
   Center  Symbol  Z        X           Y           Z
      1       O    8   -0.000000   -0.000000   -0.080837
      2       C    6    0.000000   -0.000000   -0.450931

  MBIS Quadrupoles: [e a0^2]
   Center  Symbol  Z      XX        XY        XZ        YY        YZ        ZZ
      1       O    8   -2.5336   -0.0000   -0.0000   -2.4189    0.0000   -2.9276
      2       C    6   -11.4879    0.0000    0.0000   -6.9413    0.0000   -8.4503

  MBIS Octupoles: [e a0^3]
   Center  Symbol  Z      XXX       XXY       XXZ       XYY       XYZ       XZZ       YYY       YYZ       YZZ       ZZZ
      1       O    8    0.0000    0.0000   -0.0431    0.0000    0.0000   -0.0000   -0.0000    0.0221   -0.0000    0.1984
      2       C    6    0.0000    0.0000   -3.6707    0.0000    0.0000    0.0000    0.0000   -1.2428    0.0000   -1.6053

  MBIS Radial Moments:
   Center  Symbol  Z      [a0^2]      [a0^3]      [a0^4]
      1       O    8    7.880108   12.423782   23.691066
      2       C    6   26.879543   84.601988   308.548194

  MBIS Valence Widths: [a0]
   Center  Symbol  Z     Width
      1       O    8    0.327946
      2       C    6    0.636835

*** tstop() called on Mac.lan at Sun Aug 10 17:42:21 2025
Module time:
	user time   =       3.72 seconds =       0.06 minutes
	system time =       2.59 seconds =       0.04 minutes
	total time  =          1 seconds =       0.02 minutes
Total time:
	user time   =      17.88 seconds =       0.30 minutes
	system time =       4.80 seconds =       0.08 minutes
	total time  =          2 seconds =       0.03 minutes

    Psi4 stopped on: Sunday, 10 August 2025 05:42PM
    Psi4 wall time for execution: 0:00:02.19

*** Psi4 exiting successfully. Buy a developer a beer!
