                               Psi4 1.9.1 release

  ==> Input File <==

--------------------------------------------------------------------------
molecule {
-1 2
H           0.000000           0.000000           0.000000
H           0.000000           0.000000           1.117384
}

set {
basis              cc-pvtz
reference          uks
maxiter            500
DAMPING_PERCENTAGE 1
E_CONVERGENCE      1.0E-8
D_CONVERGENCE      1.0E-8
DIIS_MAX_VECS      400
MBIS_MAXITER       8000
guess              read
}

E, wfn = energy('b3lyp', restart_file='last_wfn', return_wfn=True)
properties('b3lyp','MBIS_CHARGES', wfn=wfn)
wfn.to_file('last_wfn')
--------------------------------------------------------------------------

    Molecular point group: d2h
  Charge       = -1
  Multiplicity = 2
  Basis Set: CC-PVTZ
    Blend: CC-PVTZ
  Basis Set: (CC-PVTZ AUX)
    Blend: CC-PVTZ-JKFIT
  @DF-UKS Final Energy:    -1.05808983983589
    Total Energy =                         -1.0580898398358902
 Dipole X            :          0.0000000            0.0000000            0.0000000
 Dipole Y            :          0.0000000            0.0000000            0.0000000
 Dipole Z            :          0.0000000            0.0000000            0.0000000
 Magnitude           :                                                    0.0000000
    Molecular point group: d2h

    Geometry (in Angstrom), charge = -1, multiplicity = 2:

       Center              X                  Y                   Z               Mass
    ------------   -----------------  -----------------  -----------------  -----------------
         H            0.000000000000     0.000000000000    -0.558692000000     1.007825032230
         H            0.000000000000     0.000000000000     0.558692000000     1.007825032230

  Charge       = -1
  Multiplicity = 2
  Basis Set: CC-PVTZ
    Blend: CC-PVTZ
  Basis Set: (CC-PVTZ AUX)
    Blend: CC-PVTZ-JKFIT

    Orbital Energies [Eh]
    ---------------------

    Alpha Occupied:

       1Ag    -0.073655     1B1u    0.173764

    Alpha Virtual:

       2Ag     0.464993     2B1u    0.598932     1B3u    0.794156
       1B2u    0.794156     3Ag     1.060292     1B2g    1.128586
       1B3g    1.128586     3B1u    1.540280     4Ag     2.550695
       4B1u    2.673168     2B2u    3.192541     2B3u    3.192541
       5Ag     3.299930     1B1g    3.299930     6Ag     3.322313
       5B1u    3.764353     1Au     3.764353     3B2u    3.919780
       3B3u    3.919780     2B3g    4.000445     2B2g    4.000445
       6B1u    4.084410     3B2g    4.661241     3B3g    4.661241
       7Ag     4.760557     7B1u    5.975655

    Beta Occupied:

       1Ag    -0.035480

    Beta Virtual:

       1B1u    0.273286     2Ag     0.482918     2B1u    0.647640
       1B2u    0.810159     1B3u    0.810159     3Ag     1.103223
       1B2g    1.166750     1B3g    1.166750     3B1u    1.581827
       4Ag     2.586464     4B1u    2.717832     2B2u    3.209148
       2B3u    3.209148     5Ag     3.323775     1B1g    3.323776
       6Ag     3.350965     5B1u    3.795095     1Au     3.795095
       3B2u    3.962763     3B3u    3.962763     2B3g    4.044163
       2B2g    4.044163     6B1u    4.137779     3B3g    4.692924
       3B2g    4.692924     7Ag     4.803478     7B1u    6.003805

    Final Occupation by Irrep:
             Ag   B1g   B2g   B3g    Au   B1u   B2u   B3u
    DOCC [     1,    0,    0,    0,    0,    0,    0,    0 ]
    SOCC [     0,    0,    0,    0,    0,    1,    0,    0 ]
    NA   [     1,    0,    0,    0,    0,    1,    0,    0 ]
    NB   [     1,    0,    0,    0,    0,    0,    0,    0 ]

  @DF-UKS Final Energy:    -1.05808984023111

   => Energetics <=

    Nuclear Repulsion Energy =              0.4735858135341118
    One-Electron Energy =                  -2.6322510027625485
    Two-Electron Energy =                   1.7847330268241350
    DFT Exchange-Correlation Energy =      -0.6841576778268045
    Empirical Dispersion Energy =           0.0000000000000000
    VV10 Nonlocal Energy =                  0.0000000000000000
    Total Energy =                         -1.0580898402311059

  UHF NO Occupations:
  HONO-1 :    1 Ag 1.9993379
  HONO-0 :    1B1u 1.0000000
  LUNO+0 :    2 Ag 0.0006621
  LUNO+1 :    2B1u 0.0000000
  LUNO+2 :    3B1u 0.0000000
  LUNO+3 :    4B1u 0.0000000

Computation Completed

Properties will be evaluated at   0.000000,   0.000000,   0.000000 [a0]

Properties computed using the B3LYP density matrix

 Multipole Moments:

 ------------------------------------------------------------------------------------
     Multipole            Electronic (a.u.)      Nuclear  (a.u.)        Total (a.u.)
 ------------------------------------------------------------------------------------

 L = 1.  Multiply by 2.5417464519 to convert [e a0] to [Debye]
 Dipole X            :          0.0000000            0.0000000            0.0000000
 Dipole Y            :          0.0000000            0.0000000            0.0000000
 Dipole Z            :          0.0000000            0.0000000            0.0000000
 Magnitude           :                                                    0.0000000

 L = 2.  Multiply by 1.3450342976 to convert [e a0^2] to [Debye ang]
 Quadrupole XX       :         -4.2960200            0.0000000           -4.2960200
 Quadrupole XY       :          0.0000000            0.0000000            0.0000000
 Quadrupole XZ       :          0.0000000            0.0000000            0.0000000
 Quadrupole YY       :         -4.2960200            0.0000000           -4.2960200
 Quadrupole YZ       :          0.0000000            0.0000000            0.0000000
 Quadrupole ZZ       :        -10.2721399            2.2293211           -8.0428187
 Traceless XX        :          1.9920399           -0.7431070            1.2489329
 Traceless YY        :          1.9920399           -0.7431070            1.2489329
 Traceless ZZ        :         -3.9840799            1.4862141           -2.4978658

 ------------------------------------------------------------------------------------
  ==> Computing MBIS Charges <==

  Electron Count from Grid (Expected Number):  3.00000 ( 3.00000)
  Difference: -0.00000

  MBIS Charges: (a.u.)
   Center  Symbol  Z      Pop.       Charge
      1       H    1    1.500000   -0.500000
      2       H    1    1.500000   -0.500000

  MBIS Dipoles: [e a0]
   Center  Symbol  Z        X           Y           Z
      1       H    1   -0.000000    0.000000    0.265928
      2       H    1    0.000000   -0.000000   -0.265928

  MBIS Quadrupoles: [e a0^2]
   Center  Symbol  Z      XX        XY        XZ        YY        YZ        ZZ
      1       H    1   -2.1480   -0.0000   -0.0000   -2.1480   -0.0000   -2.9026
      2       H    1   -2.1480   -0.0000    0.0000   -2.1480    0.0000   -2.9026

  MBIS Octupoles: [e a0^3]
   Center  Symbol  Z      XXX       XXY       XXZ       XYY       XYZ       XZZ       YYY       YYZ       YZZ       ZZZ
      1       H    1    0.0000    0.0000    0.6677    0.0000   -0.0000    0.0000    0.0000    0.6677    0.0000    1.2123
      2       H    1   -0.0000   -0.0000   -0.6677    0.0000   -0.0000    0.0000    0.0000   -0.6677    0.0000   -1.2123

  MBIS Radial Moments:
   Center  Symbol  Z      [a0^2]      [a0^3]      [a0^4]
      1       H    1    7.198579   22.534309   81.997080
      2       H    1    7.198579   22.534309   81.997080

  MBIS Valence Widths: [a0]
   Center  Symbol  Z     Width
      1       H    1    0.628586
      2       H    1    0.628586

*** tstop() called on Mac.lan at Sun Aug 10 17:26:13 2025
Module time:
	user time   =       0.54 seconds =       0.01 minutes
	system time =       1.24 seconds =       0.02 minutes
	total time  =          1 seconds =       0.02 minutes
Total time:
	user time   =       2.10 seconds =       0.03 minutes
	system time =       2.90 seconds =       0.05 minutes
	total time  =          1 seconds =       0.02 minutes

    Psi4 stopped on: Sunday, 10 August 2025 05:26PM
    Psi4 wall time for execution: 0:00:00.81

*** Psi4 exiting successfully. Buy a developer a beer!
