                               Psi4 1.9.1 release

  ==> Input File <==

--------------------------------------------------------------------------
molecule {
-1 2
C           0.000000           0.000000           0.000000
C           0.000000           0.000000           1.118042
}

set {
basis              cc-pvtz
reference          uks
maxiter            500
DAMPING_PERCENTAGE 1
E_CONVERGENCE      1.0E-8
D_CONVERGENCE      1.0E-8
DIIS_MAX_VECS      400
MBIS_MAXITER       8000
guess              read
}

E, wfn = energy('b3lyp', restart_file='last_wfn', return_wfn=True)
properties('b3lyp','MBIS_CHARGES', wfn=wfn)
wfn.to_file('last_wfn')
--------------------------------------------------------------------------

    Molecular point group: d2h
  Charge       = -1
  Multiplicity = 2
  Basis Set: CC-PVTZ
    Blend: CC-PVTZ
  Basis Set: (CC-PVTZ AUX)
    Blend: CC-PVTZ-JKFIT
  @DF-UKS Final Energy:   -76.02304062707572
    Total Energy =                        -76.0230406270757157
 Dipole X            :          0.0000000            0.0000000            0.0000000
 Dipole Y            :          0.0000000            0.0000000            0.0000000
 Dipole Z            :          0.0000000            0.0000000            0.0000000
 Magnitude           :                                                    0.0000000
    Molecular point group: d2h

    Geometry (in Angstrom), charge = -1, multiplicity = 2:

       Center              X                  Y                   Z               Mass
    ------------   -----------------  -----------------  -----------------  -----------------
         C            0.000000000000     0.000000000000    -0.559021000000    12.000000000000
         C            0.000000000000     0.000000000000     0.559021000000    12.000000000000

  Charge       = -1
  Multiplicity = 2
  Basis Set: CC-PVTZ
    Blend: CC-PVTZ
  Basis Set: (CC-PVTZ AUX)
    Blend: CC-PVTZ-JKFIT

    Orbital Energies [Eh]
    ---------------------

    Alpha Occupied:

       1Ag    -9.877258     1B1u   -9.872093     2Ag    -0.495610
       2B1u   -0.091843     3Ag    -0.031541     1B3u   -0.030741
       1B2u   -0.030741

    Alpha Virtual:

       1B3g    0.329805     1B2g    0.329805     3B1u    0.399084
       4Ag     0.494693     2B3u    0.519422     2B2u    0.519422
       5Ag     0.632597     2B3g    0.661300     2B2g    0.661300
       4B1u    0.822921     6Ag     0.868214     1B1g    0.868214
       5B1u    1.050310     3B3u    1.103637     3B2u    1.103637
       6B1u    1.187409     1Au     1.187409     7Ag     1.400994
       3B3g    1.419674     3B2g    1.419674     7B1u    1.925823
       4B2u    2.220674     4B3u    2.220674     8Ag     2.440936
       4B2g    2.601787     4B3g    2.601787     8B1u    2.651778
       9Ag     2.781338     2B1g    2.781338     5B3u    2.793032
       5B2u    2.793032     6B2u    2.895415     6B3u    2.895415
      10Ag     3.103159     5B2g    3.250538     5B3g    3.250538
       6B2g    3.273810     6B3g    3.273810    11Ag     3.299723
       3B1g    3.299724     9B1u    3.349386     2Au     3.349387
      10B1u    3.759701    12Ag     3.839358     7B3u    3.917733
       7B2u    3.917733    11B1u    4.033307     3Au     4.033307
      12B1u    4.638093     7B2g    5.243714     7B3g    5.243714
      13Ag     5.763299    13B1u   15.557230

    Beta Occupied:

       1Ag    -9.868155     1B1u   -9.863420     2Ag    -0.463524
       2B1u   -0.028494     1B3u   -0.021807     1B2u   -0.021807

    Beta Virtual:

       3Ag     0.100162     1B3g    0.343174     1B2g    0.343174
       3B1u    0.410561     4Ag     0.516544     2B3u    0.523991
       2B2u    0.523991     5Ag     0.655626     2B3g    0.670222
       2B2g    0.670222     4B1u    0.845988     6Ag     0.870484
       1B1g    0.870484     5B1u    1.075403     3B3u    1.127561
       3B2u    1.127561     6B1u    1.194819     1Au     1.194819
       7Ag     1.434782     3B3g    1.437405     3B2g    1.437405
       7B1u    1.963372     4B2u    2.228301     4B3u    2.228301
       8Ag     2.468384     4B2g    2.607663     4B3g    2.607663
       8B1u    2.685447     9Ag     2.790797     2B1g    2.790798
       5B3u    2.794965     5B2u    2.794965     6B2u    2.931803
       6B3u    2.931803    10Ag     3.164519     5B2g    3.277564
       5B3g    3.277564     6B2g    3.295747     6B3g    3.295747
      11Ag     3.314912     3B1g    3.314912     9B1u    3.363737
       2Au     3.363738    10B1u    3.800154    12Ag     3.868591
       7B3u    3.953254     7B2u    3.953254    11B1u    4.046620
       3Au     4.046621    12B1u    4.683870     7B2g    5.271519
       7B3g    5.271519    13Ag     5.786401    13B1u   15.573539

    Final Occupation by Irrep:
             Ag   B1g   B2g   B3g    Au   B1u   B2u   B3u
    DOCC [     2,    0,    0,    0,    0,    2,    1,    1 ]
    SOCC [     1,    0,    0,    0,    0,    0,    0,    0 ]
    NA   [     3,    0,    0,    0,    0,    2,    1,    1 ]
    NB   [     2,    0,    0,    0,    0,    2,    1,    1 ]

  @DF-UKS Final Energy:   -76.02304062746438

   => Energetics <=

    Nuclear Repulsion Energy =             17.0390554058970949
    One-Electron Energy =                -139.0095294481787107
    Two-Electron Energy =                  54.8549994426790022
    DFT Exchange-Correlation Energy =      -8.9075660278617779
    Empirical Dispersion Energy =           0.0000000000000000
    VV10 Nonlocal Energy =                  0.0000000000000000
    Total Energy =                        -76.0230406274643826

  UHF NO Occupations:
  HONO-2 :    2 Ag 1.9997459
  HONO-1 :    2B1u 1.9986419
  HONO-0 :    3 Ag 1.0000000
  LUNO+0 :    3B1u 0.0013581
  LUNO+1 :    4 Ag 0.0002541
  LUNO+2 :    2B3u 0.0000859
  LUNO+3 :    2B2u 0.0000859

Computation Completed

Properties will be evaluated at   0.000000,   0.000000,   0.000000 [a0]

Properties computed using the B3LYP density matrix

 Multipole Moments:

 ------------------------------------------------------------------------------------
     Multipole            Electronic (a.u.)      Nuclear  (a.u.)        Total (a.u.)
 ------------------------------------------------------------------------------------

 L = 1.  Multiply by 2.5417464519 to convert [e a0] to [Debye]
 Dipole X            :          0.0000000            0.0000000            0.0000000
 Dipole Y            :          0.0000000            0.0000000            0.0000000
 Dipole Z            :          0.0000000            0.0000000            0.0000000
 Magnitude           :                                                    0.0000000

 L = 2.  Multiply by 1.3450342976 to convert [e a0^2] to [Debye ang]
 Quadrupole XX       :        -11.0105700            0.0000000          -11.0105700
 Quadrupole XY       :          0.0000000            0.0000000            0.0000000
 Quadrupole XZ       :          0.0000000            0.0000000            0.0000000
 Quadrupole YY       :        -11.0105700            0.0000000          -11.0105700
 Quadrupole YZ       :          0.0000000            0.0000000            0.0000000
 Quadrupole ZZ       :        -26.6809966           13.3916850          -13.2893116
 Traceless XX        :          5.2234755           -4.4638950            0.7595805
 Traceless YY        :          5.2234755           -4.4638950            0.7595805
 Traceless ZZ        :        -10.4469511            8.9277900           -1.5191611

 ------------------------------------------------------------------------------------
  ==> Computing MBIS Charges <==

  Electron Count from Grid (Expected Number): 13.00000 (13.00000)
  Difference: -0.00000

  MBIS Charges: (a.u.)
   Center  Symbol  Z      Pop.       Charge
      1       C    6    6.500000   -0.500000
      2       C    6    6.500000   -0.500000

  MBIS Dipoles: [e a0]
   Center  Symbol  Z        X           Y           Z
      1       C    6   -0.000000    0.000000   -0.013396
      2       C    6   -0.000000    0.000000    0.013396

  MBIS Quadrupoles: [e a0^2]
   Center  Symbol  Z      XX        XY        XZ        YY        YZ        ZZ
      1       C    6   -5.5053   -0.0000   -0.0000   -5.5053   -0.0000   -6.1150
      2       C    6   -5.5053   -0.0000    0.0000   -5.5053    0.0000   -6.1150

  MBIS Octupoles: [e a0^3]
   Center  Symbol  Z      XXX       XXY       XXZ       XYY       XYZ       XZZ       YYY       YYZ       YZZ       ZZZ
      1       C    6   -0.0000    0.0000    0.0980   -0.0000    0.0000   -0.0000    0.0000    0.0980    0.0000    0.6451
      2       C    6   -0.0000    0.0000   -0.0980   -0.0000   -0.0000   -0.0000    0.0000   -0.0980    0.0000   -0.6451

  MBIS Radial Moments:
   Center  Symbol  Z      [a0^2]      [a0^3]      [a0^4]
      1       C    6   17.125542   45.359834   142.984298
      2       C    6   17.125542   45.359834   142.984298

  MBIS Valence Widths: [a0]
   Center  Symbol  Z     Width
      1       C    6    0.547188
      2       C    6    0.547188

*** tstop() called on Mac.lan at Sun Aug 10 17:29:33 2025
Module time:
	user time   =       4.65 seconds =       0.08 minutes
	system time =       1.86 seconds =       0.03 minutes
	total time  =          1 seconds =       0.02 minutes
Total time:
	user time   =      16.91 seconds =       0.28 minutes
	system time =       4.19 seconds =       0.07 minutes
	total time  =          2 seconds =       0.03 minutes

    Psi4 stopped on: Sunday, 10 August 2025 05:29PM
    Psi4 wall time for execution: 0:00:02.06

*** Psi4 exiting successfully. Buy a developer a beer!
