                               Psi4 1.9.1 release

  ==> Input File <==

--------------------------------------------------------------------------
molecule {
-1 3
C           0.000000           0.000000           0.000000
H           0.000000           0.000000           0.835286
}

set {
basis              cc-pvtz
reference          uks
maxiter            500
DAMPING_PERCENTAGE 1
E_CONVERGENCE      1.0E-8
D_CONVERGENCE      1.0E-8
DIIS_MAX_VECS      400
MBIS_MAXITER       8000
guess              read
}

E, wfn = energy('b3lyp', restart_file='last_wfn', return_wfn=True)
properties('b3lyp','MBIS_CHARGES', wfn=wfn)
wfn.to_file('last_wfn')
--------------------------------------------------------------------------

    Molecular point group: c2v
  Charge       = -1
  Multiplicity = 3
  Basis Set: CC-PVTZ
    Blend: CC-PVTZ
  Basis Set: (CC-PVTZ AUX)
    Blend: CC-PVTZ-JKFIT
  @DF-UKS Final Energy:   -38.44611327824455
    Total Energy =                        -38.4461132782445389
 Dipole X            :          0.0000000            0.0000000            0.0000000
 Dipole Y            :          0.0000000            0.0000000            0.0000000
 Dipole Z            :          0.1130318            0.7223853            0.8354171
 Magnitude           :                                                    0.8354171
    Molecular point group: c2v

    Geometry (in Angstrom), charge = -1, multiplicity = 3:

       Center              X                  Y                   Z               Mass
    ------------   -----------------  -----------------  -----------------  -----------------
         C            0.000000000000     0.000000000000    -0.064716594649    12.000000000000
         H            0.000000000000     0.000000000000     0.770569405351     1.007825032230

  Charge       = -1
  Multiplicity = 3
  Basis Set: CC-PVTZ
    Blend: CC-PVTZ
  Basis Set: (CC-PVTZ AUX)
    Blend: CC-PVTZ-JKFIT

    Orbital Energies [Eh]
    ---------------------

    Alpha Occupied:

       1A1    -9.831972     2A1    -0.370943     3A1     0.022799
       1B1     0.094180     1B2     0.094180

    Alpha Virtual:

       4A1     0.298956     5A1     0.543785     2B2     0.578308
       2B1     0.578308     6A1     0.654019     7A1     0.875597
       3B2     0.933026     3B1     0.933026     1A2     0.970787
       8A1     0.970787     9A1     1.301112     4B1     1.378079
       4B2     1.378079    10A1     2.160352    11A1     2.240062
       5B2     2.299503     5B1     2.299503    12A1     2.531741
       2A2     2.921866    13A1     2.921866     6B1     3.004123
       6B2     3.004123     7B2     3.071848     7B1     3.071848
       3A2     3.262674    14A1     3.262674     8B2     3.371251
       8B1     3.371251    15A1     3.379525    16A1     4.072637
       4A2     4.239634    17A1     4.239634     9B2     4.319907
       9B1     4.319907    10B2     5.792133    10B1     5.792133
      18A1     5.793077    19A1     6.082419    20A1    12.431734

    Beta Occupied:

       1A1    -9.809438     2A1    -0.305973     3A1     0.064440

    Beta Virtual:

       1B1     0.248859     1B2     0.248859     4A1     0.303866
       5A1     0.561005     2B2     0.647780     2B1     0.647780
       6A1     0.689922     7A1     0.898737     3B2     0.969486
       3B1     0.969486     1A2     1.047372     8A1     1.047372
       9A1     1.321960     4B1     1.399918     4B2     1.399918
      10A1     2.194363    11A1     2.262166     5B2     2.377356
       5B1     2.377356    12A1     2.576860     2A2     2.976008
      13A1     2.976008     6B1     3.099097     6B2     3.099097
       7B2     3.116679     7B1     3.116679     3A2     3.371891
      14A1     3.371891     8B2     3.407416     8B1     3.407416
      15A1     3.411678    16A1     4.094061     4A2     4.273383
      17A1     4.273383     9B2     4.334597     9B1     4.334597
      18A1     5.812596    10B2     5.823658    10B1     5.823658
      19A1     6.094579    20A1    12.457178

    Final Occupation by Irrep:
             A1    A2    B1    B2
    DOCC [     3,    0,    0,    0 ]
    SOCC [     0,    0,    1,    1 ]
    NA   [     3,    0,    1,    1 ]
    NB   [     3,    0,    0,    0 ]

  @DF-UKS Final Energy:   -38.44611327936819

   => Energetics <=

    Nuclear Repulsion Energy =              3.8011690175820023
    One-Electron Energy =                 -60.9436758051703009
    Two-Electron Energy =                  23.5651451888030579
    DFT Exchange-Correlation Energy =      -4.8687516805829558
    Empirical Dispersion Energy =           0.0000000000000000
    VV10 Nonlocal Energy =                  0.0000000000000000
    Total Energy =                        -38.4461132793681912

  UHF NO Occupations:
  HONO-2 :    3 A1 1.9977722
  HONO-1 :    1 B1 1.0000000
  HONO-0 :    1 B2 1.0000000
  LUNO+0 :    4 A1 0.0022278
  LUNO+1 :    5 A1 0.0002181
  LUNO+2 :    6 A1 0.0000011
  LUNO+3 :    7 A1 0.0000000

Computation Completed

Properties will be evaluated at   0.000000,   0.000000,   0.000000 [a0]

Properties computed using the B3LYP density matrix

 Multipole Moments:

 ------------------------------------------------------------------------------------
     Multipole            Electronic (a.u.)      Nuclear  (a.u.)        Total (a.u.)
 ------------------------------------------------------------------------------------

 L = 1.  Multiply by 2.5417464519 to convert [e a0] to [Debye]
 Dipole X            :          0.0000000            0.0000000            0.0000000
 Dipole Y            :          0.0000000            0.0000000            0.0000000
 Dipole Z            :          0.1130318            0.7223853            0.8354171
 Magnitude           :                                                    0.8354171

 L = 2.  Multiply by 1.3450342976 to convert [e a0^2] to [Debye ang]
 Quadrupole XX       :         -7.7996232            0.0000000           -7.7996232
 Quadrupole XY       :          0.0000000            0.0000000            0.0000000
 Quadrupole XZ       :          0.0000000            0.0000000            0.0000000
 Quadrupole YY       :         -7.7996232            0.0000000           -7.7996232
 Quadrupole YZ       :          0.0000000            0.0000000            0.0000000
 Quadrupole ZZ       :        -10.1192110            2.2101557           -7.9090553
 Traceless XX        :          0.7731959           -0.7367186            0.0364774
 Traceless YY        :          0.7731959           -0.7367186            0.0364774
 Traceless ZZ        :         -1.5463919            1.4734371           -0.0729547

 ------------------------------------------------------------------------------------
  ==> Computing MBIS Charges <==

  Electron Count from Grid (Expected Number):  8.00000 ( 8.00000)
  Difference: -0.00000

  MBIS Charges: (a.u.)
   Center  Symbol  Z      Pop.       Charge
      1       C    6    7.189821   -1.189821
      2       H    1    0.810179    0.189821

  MBIS Dipoles: [e a0]
   Center  Symbol  Z        X           Y           Z
      1       C    6    0.000000   -0.000000    0.388128
      2       H    1    0.000000    0.000000    0.025367

  MBIS Quadrupoles: [e a0^2]
   Center  Symbol  Z      XX        XY        XZ        YY        YZ        ZZ
      1       C    6   -7.4835    0.0000    0.0000   -7.4835    0.0000   -7.9497
      2       H    1   -0.3161   -0.0000    0.0000   -0.3161    0.0000   -0.3230

  MBIS Octupoles: [e a0^3]
   Center  Symbol  Z      XXX       XXY       XXZ       XYY       XYZ       XZZ       YYY       YYZ       YZZ       ZZZ
      1       C    6   -0.0000    0.0000    0.9542    0.0000   -0.0000    0.0000    0.0000    0.9542    0.0000    1.8293
      2       H    1    0.0000    0.0000    0.0040    0.0000    0.0000   -0.0000    0.0000    0.0040    0.0000    0.0035

  MBIS Radial Moments:
   Center  Symbol  Z      [a0^2]      [a0^3]      [a0^4]
      1       C    6   22.916809   64.910360   214.482132
      2       H    1    0.955140    1.479391    2.756605

  MBIS Valence Widths: [a0]
   Center  Symbol  Z     Width
      1       C    6    0.595789
      2       H    1    0.316168

*** tstop() called on Mac.lan at Sun Aug 10 17:35:00 2025
Module time:
	user time   =       3.67 seconds =       0.06 minutes
	system time =       2.64 seconds =       0.04 minutes
	total time  =          0 seconds =       0.00 minutes
Total time:
	user time   =      11.95 seconds =       0.20 minutes
	system time =       5.23 seconds =       0.09 minutes
	total time  =          2 seconds =       0.03 minutes

    Psi4 stopped on: Sunday, 10 August 2025 05:35PM
    Psi4 wall time for execution: 0:00:01.67

*** Psi4 exiting successfully. Buy a developer a beer!
