                               Psi4 1.9.1 release

  ==> Input File <==

--------------------------------------------------------------------------
molecule {
-1 2
O           0.000000           0.000000           0.000000
O           0.000000           0.000000           1.012896
}

set {
basis              cc-pvtz
reference          uks
maxiter            500
DAMPING_PERCENTAGE 1
E_CONVERGENCE      1.0E-8
D_CONVERGENCE      1.0E-8
DIIS_MAX_VECS      400
MBIS_MAXITER       8000
guess              read
}

E, wfn = energy('b3lyp', restart_file='last_wfn', return_wfn=True)
properties('b3lyp','MBIS_CHARGES', wfn=wfn)
wfn.to_file('last_wfn')
--------------------------------------------------------------------------

    Molecular point group: d2h
  Charge       = -1
  Multiplicity = 2
  Basis Set: CC-PVTZ
    Blend: CC-PVTZ
  Basis Set: (CC-PVTZ AUX)
    Blend: CC-PVTZ-JKFIT
  @DF-UKS Final Energy:  -150.18714239147172
    Total Energy =                       -150.1871423914717241
 Dipole X            :          0.0000000            0.0000000            0.0000000
 Dipole Y            :          0.0000000            0.0000000            0.0000000
 Dipole Z            :          0.0000000            0.0000000            0.0000000
 Magnitude           :                                                    0.0000000
    Molecular point group: d2h

    Geometry (in Angstrom), charge = -1, multiplicity = 2:

       Center              X                  Y                   Z               Mass
    ------------   -----------------  -----------------  -----------------  -----------------
         O            0.000000000000     0.000000000000    -0.506448000000    15.994914619570
         O            0.000000000000     0.000000000000     0.506448000000    15.994914619570

  Charge       = -1
  Multiplicity = 2
  Basis Set: CC-PVTZ
    Blend: CC-PVTZ
  Basis Set: (CC-PVTZ AUX)
    Blend: CC-PVTZ-JKFIT

    Orbital Energies [Eh]
    ---------------------

    Alpha Occupied:

       1Ag   -18.785626     1B1u  -18.784529     2Ag    -1.038847
       2B1u   -0.339745     1B2u   -0.225341     1B3u   -0.185955
       3Ag    -0.156703     1B3g    0.191125     1B2g    0.232137

    Alpha Virtual:

       3B1u    0.623144     2B2u    0.804571     2B3u    0.825703
       4Ag     0.837245     2B3g    0.949653     2B2g    0.971561
       5Ag     1.027317     4B1u    1.160589     5B1u    1.497939
       1B1g    1.559954     6Ag     1.560244     3B2u    1.818486
       3B3u    1.847289     1Au     2.090509     6B1u    2.090683
       7Ag     2.577689     3B3g    2.625161     3B2g    2.651311
       7B1u    2.717732     4B2u    3.837455     4B3u    3.873102
       8Ag     4.132561     4B3g    4.252757     4B2g    4.290236
       8B1u    4.886447     2B1g    4.945585     9Ag     4.945917
       5B2u    5.161262     5B3u    5.174789     6B2u    5.181225
       6B3u    5.196698    10Ag     5.674278     5B3g    5.704533
       5B2g    5.704547     9B1u    6.299736     3B1g    6.455944
      11Ag     6.455968     2Au     6.565623    10B1u    6.565665
       6B3g    6.623814     6B2g    6.655060     3Au     6.745001
      11B1u    6.746072     7B2u    7.099468     7B3u    7.133276
      12Ag     7.357551    12B1u    7.824178     7B3g    8.477647
       7B2g    8.509189    13Ag     8.521138    13B1u   19.003546

    Beta Occupied:

       1Ag   -18.772041     1B1u  -18.770852     2Ag    -1.016831
       2B1u   -0.298733     1B3u   -0.174740     1B2u   -0.148789
       3Ag    -0.135008     1B2g    0.246654

    Beta Virtual:

       1B3g    0.355624     3B1u    0.631301     2B3u    0.829962
       2B2u    0.831980     4Ag     0.842262     2B2g    0.978547
       2B3g    0.996290     5Ag     1.039610     4B1u    1.181579
       5B1u    1.515549     1B1g    1.578959     6Ag     1.580086
       3B3u    1.850069     3B2u    1.851679     1Au     2.121575
       6B1u    2.123182     7Ag     2.590196     3B2g    2.655775
       3B3g    2.659757     7B1u    2.730474     4B3u    3.883812
       4B2u    3.897607     8Ag     4.144325     4B2g    4.301379
       4B3g    4.312026     8B1u    4.907110     2B1g    4.962278
       9Ag     4.963294     5B2u    5.193048     5B3u    5.197196
       6B3u    5.208826     6B2u    5.209180    10Ag     5.688217
       5B2g    5.740087     5B3g    5.740339     9B1u    6.318925
       3B1g    6.504104    11Ag     6.507253     2Au     6.606270
      10B1u    6.608840     6B2g    6.660469     6B3g    6.668523
       3Au     6.777126    11B1u    6.779171     7B3u    7.138647
       7B2u    7.142373    12Ag     7.383601    12B1u    7.839797
       7B3g    8.513663     7B2g    8.514064    13Ag     8.534795
      13B1u   19.023404

    Final Occupation by Irrep:
             Ag   B1g   B2g   B3g    Au   B1u   B2u   B3u
    DOCC [     3,    0,    1,    0,    0,    2,    1,    1 ]
    SOCC [     0,    0,    0,    1,    0,    0,    0,    0 ]
    NA   [     3,    0,    1,    1,    0,    2,    1,    1 ]
    NB   [     3,    0,    1,    0,    0,    2,    1,    1 ]

  @DF-UKS Final Energy:  -150.18714239128064

   => Energetics <=

    Nuclear Repulsion Energy =             33.4361489065807618
    One-Electron Energy =                -278.8392500881855085
    Two-Electron Energy =                 109.4937184492472255
    DFT Exchange-Correlation Energy =     -14.2777596589231450
    Empirical Dispersion Energy =           0.0000000000000000
    VV10 Nonlocal Energy =                  0.0000000000000000
    Total Energy =                       -150.1871423912806733

  UHF NO Occupations:
  HONO-2 :    2B1u 1.9997450
  HONO-1 :    1B2u 1.9993069
  HONO-0 :    1B3g 1.0000000
  LUNO+0 :    2B2u 0.0006931
  LUNO+1 :    3B1u 0.0002550
  LUNO+2 :    4 Ag 0.0001306
  LUNO+3 :    2B2g 0.0000593

Computation Completed

Properties will be evaluated at   0.000000,   0.000000,   0.000000 [a0]

Properties computed using the B3LYP density matrix

 Multipole Moments:

 ------------------------------------------------------------------------------------
     Multipole            Electronic (a.u.)      Nuclear  (a.u.)        Total (a.u.)
 ------------------------------------------------------------------------------------

 L = 1.  Multiply by 2.5417464519 to convert [e a0] to [Debye]
 Dipole X            :          0.0000000            0.0000000            0.0000000
 Dipole Y            :          0.0000000            0.0000000            0.0000000
 Dipole Z            :          0.0000000            0.0000000            0.0000000
 Magnitude           :                                                    0.0000000

 L = 2.  Multiply by 1.3450342976 to convert [e a0^2] to [Debye ang]
 Quadrupole XX       :         -9.2918798            0.0000000           -9.2918798
 Quadrupole XY       :          0.0000000            0.0000000            0.0000000
 Quadrupole XZ       :          0.0000000            0.0000000            0.0000000
 Quadrupole YY       :         -8.3789403            0.0000000           -8.3789403
 Quadrupole YZ       :          0.0000000            0.0000000            0.0000000
 Quadrupole ZZ       :        -25.9637660           14.6550545          -11.3087115
 Traceless XX        :          5.2529822           -4.8850182            0.3679640
 Traceless YY        :          6.1659217           -4.8850182            1.2809036
 Traceless ZZ        :        -11.4189040            9.7700363           -1.6488676

 ------------------------------------------------------------------------------------
  ==> Computing MBIS Charges <==

  Electron Count from Grid (Expected Number): 17.00000 (17.00000)
  Difference:  0.00000

  MBIS Charges: (a.u.)
   Center  Symbol  Z      Pop.       Charge
      1       O    8    8.500000   -0.500000
      2       O    8    8.500000   -0.500000

  MBIS Dipoles: [e a0]
   Center  Symbol  Z        X           Y           Z
      1       O    8   -0.000000   -0.000000    0.341471
      2       O    8   -0.000000    0.000000   -0.341471

  MBIS Quadrupoles: [e a0^2]
   Center  Symbol  Z      XX        XY        XZ        YY        YZ        ZZ
      1       O    8   -4.6459   -0.0000    0.0000   -4.1895    0.0000   -4.5428
      2       O    8   -4.6459    0.0000   -0.0000   -4.1895   -0.0000   -4.5428

  MBIS Octupoles: [e a0^3]
   Center  Symbol  Z      XXX       XXY       XXZ       XYY       XYZ       XZZ       YYY       YYZ       YZZ       ZZZ
      1       O    8   -0.0000   -0.0000    0.6584    0.0000   -0.0000   -0.0000   -0.0000    0.4528   -0.0000    0.2064
      2       O    8   -0.0000   -0.0000   -0.6584    0.0000    0.0000   -0.0000    0.0000   -0.4528   -0.0000   -0.2064

  MBIS Radial Moments:
   Center  Symbol  Z      [a0^2]      [a0^3]      [a0^4]
      1       O    8   13.378187   26.813038   64.382144
      2       O    8   13.378187   26.813038   64.382144

  MBIS Valence Widths: [a0]
   Center  Symbol  Z     Width
      1       O    8    0.403251
      2       O    8    0.403251

*** tstop() called on Mac.lan at Sun Aug 10 17:27:19 2025
Module time:
	user time   =       3.42 seconds =       0.06 minutes
	system time =       2.28 seconds =       0.04 minutes
	total time  =          0 seconds =       0.00 minutes
Total time:
	user time   =      15.97 seconds =       0.27 minutes
	system time =       4.73 seconds =       0.08 minutes
	total time  =          2 seconds =       0.03 minutes

    Psi4 stopped on: Sunday, 10 August 2025 05:27PM
    Psi4 wall time for execution: 0:00:02.01

*** Psi4 exiting successfully. Buy a developer a beer!
