                               Psi4 1.9.1 release

  ==> Input File <==

--------------------------------------------------------------------------
molecule {
-1 3
C           0.000000           0.000000           0.000000
H           0.000000           0.000000           0.429979
}

set {
basis              cc-pvtz
reference          uks
maxiter            500
DAMPING_PERCENTAGE 1
E_CONVERGENCE      1.0E-8
D_CONVERGENCE      1.0E-8
DIIS_MAX_VECS      400
MBIS_MAXITER       8000
guess              read
}

E, wfn = energy('b3lyp', restart_file='last_wfn', return_wfn=True)
properties('b3lyp','MBIS_CHARGES', wfn=wfn)
wfn.to_file('last_wfn')
--------------------------------------------------------------------------

    Molecular point group: c2v
  Charge       = -1
  Multiplicity = 3
  Basis Set: CC-PVTZ
    Blend: CC-PVTZ
  Basis Set: (CC-PVTZ AUX)
    Blend: CC-PVTZ-JKFIT
  @DF-UKS Final Energy:   -37.07069923033734
    Total Energy =                        -37.0706992303373397
 Dipole X            :          0.0000000            0.0000000            0.0000000
 Dipole Y            :          0.0000000            0.0000000            0.0000000
 Dipole Z            :          0.5532379            0.3718613            0.9250992
 Magnitude           :                                                    0.9250992
    Molecular point group: c2v

    Geometry (in Angstrom), charge = -1, multiplicity = 3:

       Center              X                  Y                   Z               Mass
    ------------   -----------------  -----------------  -----------------  -----------------
         C            0.000000000000     0.000000000000    -0.033314070451    12.000000000000
         H            0.000000000000     0.000000000000     0.396664929549     1.007825032230

  Charge       = -1
  Multiplicity = 3
  Basis Set: CC-PVTZ
    Blend: CC-PVTZ
  Basis Set: (CC-PVTZ AUX)
    Blend: CC-PVTZ-JKFIT

    Orbital Energies [Eh]
    ---------------------

    Alpha Occupied:

       1A1    -9.933526     2A1    -0.441025     3A1     0.009496
       1B1     0.086112     1B2     0.086112

    Alpha Virtual:

       4A1     0.294118     5A1     0.512016     2B2     0.564826
       2B1     0.564826     6A1     0.788116     3B1     0.966641
       3B2     0.966641     7A1     0.976042     1A2     0.976042
       8A1     1.039368     9A1     1.366769     4B1     1.530385
       4B2     1.530385    10A1     2.059274     5B1     2.180042
       5B2     2.180042    11A1     2.618309     2A2     2.968879
      12A1     2.968879     6B2     3.011294     6B1     3.011294
      13A1     3.034972     7B1     3.100696     7B2     3.100696
      14A1     3.187471     3A2     3.187471    15A1     3.536592
       8B1     3.644929     8B2     3.644929    16A1     4.974646
       4A2     5.064386    17A1     5.064386     9B2     5.074327
       9B1     5.074327    18A1     6.041306    10B1     7.562308
      10B2     7.562308    19A1    10.715601    20A1    22.451605

    Beta Occupied:

       1A1    -9.907903     2A1    -0.372264     3A1     0.059034

    Beta Virtual:

       1B2     0.247078     1B1     0.247078     4A1     0.303535
       5A1     0.526526     2B2     0.634578     2B1     0.634578
       6A1     0.827311     3B1     1.003028     3B2     1.003028
       1A2     1.051317     7A1     1.051317     8A1     1.066666
       9A1     1.373581     4B1     1.551773     4B2     1.551773
      10A1     2.095989     5B1     2.260576     5B2     2.260576
      11A1     2.656760     2A2     3.026155    12A1     3.026155
      13A1     3.095567     6B2     3.106501     6B1     3.106501
       7B1     3.147879     7B2     3.147879     3A2     3.296467
      14A1     3.296467    15A1     3.562766     8B1     3.687661
       8B2     3.687661    16A1     5.011145     9B2     5.111613
       9B1     5.111613    17A1     5.120229     4A2     5.120229
      18A1     6.073635    10B1     7.603009    10B2     7.603009
      19A1    10.725468    20A1    22.474954

    Final Occupation by Irrep:
             A1    A2    B1    B2
    DOCC [     3,    0,    0,    0 ]
    SOCC [     0,    0,    1,    1 ]
    NA   [     3,    0,    1,    1 ]
    NB   [     3,    0,    0,    0 ]

  @DF-UKS Final Energy:   -37.07069923036172

   => Energetics <=

    Nuclear Repulsion Energy =              7.3842286809820950
    One-Electron Energy =                 -64.8265422405292497
    Two-Electron Energy =                  25.4677897870398979
    DFT Exchange-Correlation Energy =      -5.0961754578544651
    Empirical Dispersion Energy =           0.0000000000000000
    VV10 Nonlocal Energy =                  0.0000000000000000
    Total Energy =                        -37.0706992303617184

  UHF NO Occupations:
  HONO-2 :    3 A1 1.9971110
  HONO-1 :    1 B2 1.0000000
  HONO-0 :    1 B1 1.0000000
  LUNO+0 :    4 A1 0.0028890
  LUNO+1 :    5 A1 0.0001683
  LUNO+2 :    6 A1 0.0000013
  LUNO+3 :    2 B1 0.0000000

Computation Completed

Properties will be evaluated at   0.000000,   0.000000,   0.000000 [a0]

Properties computed using the B3LYP density matrix

 Multipole Moments:

 ------------------------------------------------------------------------------------
     Multipole            Electronic (a.u.)      Nuclear  (a.u.)        Total (a.u.)
 ------------------------------------------------------------------------------------

 L = 1.  Multiply by 2.5417464519 to convert [e a0] to [Debye]
 Dipole X            :          0.0000000            0.0000000            0.0000000
 Dipole Y            :          0.0000000            0.0000000            0.0000000
 Dipole Z            :          0.5532379            0.3718613            0.9250992
 Magnitude           :                                                    0.9250992

 L = 2.  Multiply by 1.3450342976 to convert [e a0^2] to [Debye ang]
 Quadrupole XX       :         -7.5297234            0.0000000           -7.5297234
 Quadrupole XY       :          0.0000000            0.0000000            0.0000000
 Quadrupole XZ       :          0.0000000            0.0000000            0.0000000
 Quadrupole YY       :         -7.5297234            0.0000000           -7.5297234
 Quadrupole YZ       :          0.0000000            0.0000000            0.0000000
 Quadrupole ZZ       :         -8.0733076            0.5856619           -7.4876457
 Traceless XX        :          0.1811947           -0.1952206           -0.0140259
 Traceless YY        :          0.1811947           -0.1952206           -0.0140259
 Traceless ZZ        :         -0.3623894            0.3904413            0.0280518

 ------------------------------------------------------------------------------------
  ==> Computing MBIS Charges <==

  Electron Count from Grid (Expected Number):  8.00000 ( 8.00000)
  Difference:  0.00000

  MBIS Charges: (a.u.)
   Center  Symbol  Z      Pop.       Charge
      1       C    6    7.059155   -1.059155
      2       H    1    0.940845    0.059155

  MBIS Dipoles: [e a0]
   Center  Symbol  Z        X           Y           Z
      1       C    6   -0.000000   -0.000000    0.814381
      2       H    1   -0.000000   -0.000000   -0.000302

  MBIS Quadrupoles: [e a0^2]
   Center  Symbol  Z      XX        XY        XZ        YY        YZ        ZZ
      1       C    6   -7.3119    0.0000    0.0000   -7.3119    0.0000   -7.2032
      2       H    1   -0.2178   -0.0000    0.0000   -0.2178    0.0000   -0.2105

  MBIS Octupoles: [e a0^3]
   Center  Symbol  Z      XXX       XXY       XXZ       XYY       XYZ       XZZ       YYY       YYZ       YZZ       ZZZ
      1       C    6   -0.0000    0.0000    1.7801   -0.0000   -0.0000   -0.0000   -0.0000    1.7801   -0.0000    5.4492
      2       H    1    0.0000   -0.0000    0.0036   -0.0000   -0.0000    0.0000    0.0000    0.0036   -0.0000    0.0136

  MBIS Radial Moments:
   Center  Symbol  Z      [a0^2]      [a0^3]      [a0^4]
      1       C    6   21.827015   62.059554   207.578911
      2       H    1    0.646127    0.757385    1.066755

  MBIS Valence Widths: [a0]
   Center  Symbol  Z     Width
      1       C    6    0.585738
      2       H    1    0.242154

*** tstop() called on Mac.lan at Sun Aug 10 17:35:38 2025
Module time:
	user time   =       3.30 seconds =       0.05 minutes
	system time =       2.65 seconds =       0.04 minutes
	total time  =          1 seconds =       0.02 minutes
Total time:
	user time   =      13.72 seconds =       0.23 minutes
	system time =       4.96 seconds =       0.08 minutes
	total time  =          2 seconds =       0.03 minutes

    Psi4 stopped on: Sunday, 10 August 2025 05:35PM
    Psi4 wall time for execution: 0:00:01.81

*** Psi4 exiting successfully. Buy a developer a beer!
