                               Psi4 1.9.1 release

  ==> Input File <==

--------------------------------------------------------------------------
molecule {
-1 2
O           0.000000           0.000000           0.000000
C           0.000000           0.000000           0.513969
}

set {
basis              cc-pvtz
reference          uks
maxiter            500
DAMPING_PERCENTAGE 1
E_CONVERGENCE      1.0E-8
D_CONVERGENCE      1.0E-8
DIIS_MAX_VECS      400
MBIS_MAXITER       8000
guess              read
}

E, wfn = energy('b3lyp', restart_file='last_wfn', return_wfn=True)
properties('b3lyp','MBIS_CHARGES', wfn=wfn)
wfn.to_file('last_wfn')
--------------------------------------------------------------------------

    Molecular point group: c2v
  Charge       = -1
  Multiplicity = 2
  Basis Set: CC-PVTZ
    Blend: CC-PVTZ
  Basis Set: (CC-PVTZ AUX)
    Blend: CC-PVTZ-JKFIT
  @DF-UKS Final Energy:  -108.14169069913133
    Total Energy =                       -108.1416906991313311
 Dipole X            :          0.0000000            0.0000000            0.0000000
 Dipole Y            :          0.0000000            0.0000000            0.0000000
 Dipole Z            :         -1.6508289           -0.0010586           -1.6518875
 Magnitude           :                                                    1.6518875
    Molecular point group: c2v

    Geometry (in Angstrom), charge = -1, multiplicity = 2:

       Center              X                  Y                   Z               Mass
    ------------   -----------------  -----------------  -----------------  -----------------
         O            0.000000000000     0.000000000000    -0.220312441878    15.994914619570
         C            0.000000000000     0.000000000000     0.293656558122    12.000000000000

  Charge       = -1
  Multiplicity = 2
  Basis Set: CC-PVTZ
    Blend: CC-PVTZ
  Basis Set: (CC-PVTZ AUX)
    Blend: CC-PVTZ-JKFIT

    Orbital Energies [Eh]
    ---------------------

    Alpha Occupied:

       1A1   -19.191798     2A1   -10.337419     3A1    -0.825768
       1B2    -0.669644     1B1    -0.667384     4A1    -0.115518
       5A1    -0.019558     2B1     0.294614

    Alpha Virtual:

       2B2     0.355155     6A1     0.366221     7A1     0.512552
       3B2     0.637030     3B1     0.644374     8A1     0.820503
       1A2     0.886940     9A1     0.889650     4B2     0.913978
       4B1     0.916013    10A1     1.163536     5B2     1.517167
       5B1     1.521303    11A1     1.634112     6B2     1.791054
       6B1     1.797636     2A2     1.937240    12A1     1.939049
      13A1     2.096114    14A1     2.457146     7B2     2.844524
       7B1     2.849284     8B1     2.906141     8B2     2.906192
       3A2     3.093531    15A1     3.094191    16A1     3.247588
       9B2     3.400883     9B1     3.406692     4A2     3.733609
      17A1     3.733923    18A1     3.826419    10B2     4.350297
      10B1     4.356039    19A1     4.879428    11B2     5.193297
      11B1     5.197906    12B1     5.791291    12B2     5.791301
       5A2     6.308533    20A1     6.308907    21A1     6.567497
      13B2     7.224445    13B1     7.228043     6A2     7.645379
      22A1     7.645572    23A1     7.892406    14B2     9.390331
      14B1     9.392239    24A1     9.611759    25A1    10.541079
      26A1    22.335729

    Beta Occupied:

       1A1   -19.189476     2A1   -10.337987     3A1    -0.822480
       1B2    -0.668846     1B1    -0.659199     4A1    -0.114176
       5A1    -0.014587

    Beta Virtual:

       2B2     0.368575     6A1     0.381446     2B1     0.394284
       7A1     0.528174     3B2     0.633540     3B1     0.645621
       8A1     0.828469     1A2     0.904074     9A1     0.905288
       4B2     0.915794     4B1     0.932732    10A1     1.169764
       5B2     1.517545     5B1     1.535023    11A1     1.635819
       6B2     1.789669     6B1     1.803132     2A2     1.947586
      12A1     1.947653    13A1     2.098922    14A1     2.459100
       7B2     2.843414     7B1     2.852166     8B2     2.908832
       8B1     2.908862    15A1     3.095324     3A2     3.095483
      16A1     3.247543     9B2     3.398438     9B1     3.410843
      17A1     3.735113     4A2     3.735397    18A1     3.825710
      10B2     4.349995    10B1     4.362080    19A1     4.880993
      11B2     5.193088    11B1     5.202537    12B2     5.793516
      12B1     5.793519     5A2     6.313364    20A1     6.313373
      21A1     6.568520    13B2     7.224388    13B1     7.231355
      22A1     7.648287     6A2     7.648314    23A1     7.894296
      14B2     9.390786    14B1     9.396777    24A1     9.613372
      25A1    10.543124    26A1    22.337441

    Final Occupation by Irrep:
             A1    A2    B1    B2
    DOCC [     5,    0,    1,    1 ]
    SOCC [     0,    0,    1,    0 ]
    NA   [     5,    0,    2,    1 ]
    NB   [     5,    0,    1,    1 ]

  @DF-UKS Final Energy:  -108.14169069926650

   => Energetics <=

    Nuclear Repulsion Energy =             49.4203076686726561
    One-Electron Energy =                -242.8074833262309653
    Two-Electron Energy =                  97.7779909661464046
    DFT Exchange-Correlation Energy =     -12.5325060078545878
    Empirical Dispersion Energy =           0.0000000000000000
    VV10 Nonlocal Energy =                  0.0000000000000000
    Total Energy =                       -108.1416906992665048

  UHF NO Occupations:
  HONO-2 :    1 B1 1.9999918
  HONO-1 :    5 A1 1.9992140
  HONO-0 :    2 B1 1.0000000
  LUNO+0 :    6 A1 0.0007860
  LUNO+1 :    3 B1 0.0000082
  LUNO+2 :    7 A1 0.0000052
  LUNO+3 :    8 A1 0.0000011

Computation Completed

Properties will be evaluated at   0.000000,   0.000000,   0.000000 [a0]

Properties computed using the B3LYP density matrix

 Multipole Moments:

 ------------------------------------------------------------------------------------
     Multipole            Electronic (a.u.)      Nuclear  (a.u.)        Total (a.u.)
 ------------------------------------------------------------------------------------

 L = 1.  Multiply by 2.5417464519 to convert [e a0] to [Debye]
 Dipole X            :          0.0000000            0.0000000            0.0000000
 Dipole Y            :          0.0000000            0.0000000            0.0000000
 Dipole Z            :         -1.6508289           -0.0010586           -1.6518875
 Magnitude           :                                                    1.6518875

 L = 2.  Multiply by 1.3450342976 to convert [e a0^2] to [Debye ang]
 Quadrupole XX       :        -14.4803643            0.0000000          -14.4803643
 Quadrupole XY       :          0.0000000            0.0000000            0.0000000
 Quadrupole XZ       :          0.0000000            0.0000000            0.0000000
 Quadrupole YY       :         -8.9404699            0.0000000           -8.9404699
 Quadrupole YZ       :          0.0000000            0.0000000            0.0000000
 Quadrupole ZZ       :        -15.3846873            3.2343335          -12.1503538
 Traceless XX        :         -1.5451905           -1.0781112           -2.6233016
 Traceless YY        :          3.9947040           -1.0781112            2.9165928
 Traceless ZZ        :         -2.4495135            2.1562223           -0.2932912

 ------------------------------------------------------------------------------------
  ==> Computing MBIS Charges <==

  Electron Count from Grid (Expected Number): 15.00000 (15.00000)
  Difference:  0.00000

  MBIS Charges: (a.u.)
   Center  Symbol  Z      Pop.       Charge
      1       O    8    7.616851    0.383149
      2       C    6    7.383150   -1.383150

  MBIS Dipoles: [e a0]
   Center  Symbol  Z        X           Y           Z
      1       O    8    0.000000    0.000000   -0.153033
      2       C    6   -0.000000    0.000000   -0.571785

  MBIS Quadrupoles: [e a0^2]
   Center  Symbol  Z      XX        XY        XZ        YY        YZ        ZZ
      1       O    8   -2.0872   -0.0000   -0.0000   -2.0090   -0.0000   -2.4581
      2       C    6   -12.3932   -0.0000    0.0000   -6.9315    0.0000   -8.8255

  MBIS Octupoles: [e a0^3]
   Center  Symbol  Z      XXX       XXY       XXZ       XYY       XYZ       XZZ       YYY       YYZ       YZZ       ZZZ
      1       O    8    0.0000    0.0000   -0.0663   -0.0000    0.0000   -0.0000    0.0000   -0.0345   -0.0000    0.1889
      2       C    6    0.0000   -0.0000   -3.8316    0.0000    0.0000    0.0000    0.0000   -1.6457    0.0000   -2.4058

  MBIS Radial Moments:
   Center  Symbol  Z      [a0^2]      [a0^3]      [a0^4]
      1       O    8    6.554300    9.395221   16.293749
      2       C    6   28.150184   92.047401   347.860577

  MBIS Valence Widths: [a0]
   Center  Symbol  Z     Width
      1       O    8    0.299018
      2       C    6    0.650438

*** tstop() called on Mac.lan at Sun Aug 10 17:42:40 2025
Module time:
	user time   =       3.61 seconds =       0.06 minutes
	system time =       3.58 seconds =       0.06 minutes
	total time  =          1 seconds =       0.02 minutes
Total time:
	user time   =      17.05 seconds =       0.28 minutes
	system time =       5.74 seconds =       0.10 minutes
	total time  =          3 seconds =       0.05 minutes

    Psi4 stopped on: Sunday, 10 August 2025 05:42PM
    Psi4 wall time for execution: 0:00:02.21

*** Psi4 exiting successfully. Buy a developer a beer!
