                               Psi4 1.9.1 release

  ==> Input File <==

--------------------------------------------------------------------------
molecule {
-1 3
C           0.000000           0.000000           0.000000
H           0.000000           0.000000           1.159532
}

set {
basis              cc-pvtz
reference          uks
maxiter            500
DAMPING_PERCENTAGE 1
E_CONVERGENCE      1.0E-8
D_CONVERGENCE      1.0E-8
DIIS_MAX_VECS      400
MBIS_MAXITER       8000
guess              read
}

E, wfn = energy('b3lyp', restart_file='last_wfn', return_wfn=True)
properties('b3lyp','MBIS_CHARGES', wfn=wfn)
wfn.to_file('last_wfn')
--------------------------------------------------------------------------

    Molecular point group: c2v
  Charge       = -1
  Multiplicity = 3
  Basis Set: CC-PVTZ
    Blend: CC-PVTZ
  Basis Set: (CC-PVTZ AUX)
    Blend: CC-PVTZ-JKFIT
  @DF-UKS Final Energy:   -38.52717806573422
    Total Energy =                        -38.5271780657342120
 Dipole X            :          0.0000000            0.0000000            0.0000000
 Dipole Y            :          0.0000000            0.0000000            0.0000000
 Dipole Z            :         -0.6244920            1.0028049            0.3783129
 Magnitude           :                                                    0.3783129
    Molecular point group: c2v

    Geometry (in Angstrom), charge = -1, multiplicity = 3:

       Center              X                  Y                   Z               Mass
    ------------   -----------------  -----------------  -----------------  -----------------
         C            0.000000000000     0.000000000000    -0.089838644998    12.000000000000
         H            0.000000000000     0.000000000000     1.069693355002     1.007825032230

  Charge       = -1
  Multiplicity = 3
  Basis Set: CC-PVTZ
    Blend: CC-PVTZ
  Basis Set: (CC-PVTZ AUX)
    Blend: CC-PVTZ-JKFIT

    Orbital Energies [Eh]
    ---------------------

    Alpha Occupied:

       1A1    -9.879351     2A1    -0.301148     3A1     0.009188
       1B1     0.086092     1B2     0.086092

    Alpha Virtual:

       4A1     0.292955     5A1     0.541134     2B2     0.573987
       2B1     0.573987     6A1     0.642320     7A1     0.709492
       3B1     0.872652     3B2     0.872652     8A1     0.964878
       1A2     0.964878     9A1     1.242800     4B1     1.311416
       4B2     1.311416    10A1     1.639583     5B1     2.287798
       5B2     2.287798    11A1     2.406414    12A1     2.556853
      13A1     2.871139     2A2     2.871139     6B1     2.954465
       6B2     2.954465     7B2     2.992990     7B1     2.992990
      14A1     3.219195     3A2     3.262851    15A1     3.262851
       8B1     3.403592     8B2     3.403592    16A1     3.516135
      17A1     3.845312     4A2     3.845313     9B1     4.098580
       9B2     4.098580    18A1     4.673163    10B1     4.915954
      10B2     4.915954    19A1     4.975718    20A1     8.012577

    Beta Occupied:

       1A1    -9.855992     2A1    -0.230235     3A1     0.043555

    Beta Virtual:

       1B2     0.242698     1B1     0.242698     4A1     0.300623
       5A1     0.557267     2B1     0.644992     2B2     0.644992
       6A1     0.667495     7A1     0.742213     3B1     0.900699
       3B2     0.900699     1A2     1.041366     8A1     1.041366
       9A1     1.266402     4B1     1.335501     4B2     1.335501
      10A1     1.659199     5B1     2.367288     5B2     2.367288
      11A1     2.423373    12A1     2.585663    13A1     2.920161
       2A2     2.920161     6B1     2.994000     6B2     2.994000
       7B1     3.088645     7B2     3.088645    14A1     3.253460
      15A1     3.381096     3A2     3.381096     8B1     3.453429
       8B2     3.453429    16A1     3.542217    17A1     3.864544
       4A2     3.864544     9B1     4.099164     9B2     4.099164
      18A1     4.687832    10B1     4.938787    10B2     4.938787
      19A1     4.985154    20A1     8.041550

    Final Occupation by Irrep:
             A1    A2    B1    B2
    DOCC [     3,    0,    0,    0 ]
    SOCC [     0,    0,    1,    1 ]
    NA   [     3,    0,    1,    1 ]
    NB   [     3,    0,    0,    0 ]

  @DF-UKS Final Energy:   -38.52717806590008

   => Energetics <=

    Nuclear Repulsion Energy =              2.7382282369266222
    One-Electron Energy =                 -59.0585579174470112
    Two-Electron Energy =                  22.5516132752079912
    DFT Exchange-Correlation Energy =      -4.7584616605876873
    Empirical Dispersion Energy =           0.0000000000000000
    VV10 Nonlocal Energy =                  0.0000000000000000
    Total Energy =                        -38.5271780659000811

  UHF NO Occupations:
  HONO-2 :    3 A1 1.9976150
  HONO-1 :    1 B1 1.0000000
  HONO-0 :    1 B2 1.0000000
  LUNO+0 :    4 A1 0.0023850
  LUNO+1 :    5 A1 0.0004203
  LUNO+2 :    6 A1 0.0000011
  LUNO+3 :    7 A1 0.0000000

Computation Completed

Properties will be evaluated at   0.000000,   0.000000,   0.000000 [a0]

Properties computed using the B3LYP density matrix

 Multipole Moments:

 ------------------------------------------------------------------------------------
     Multipole            Electronic (a.u.)      Nuclear  (a.u.)        Total (a.u.)
 ------------------------------------------------------------------------------------

 L = 1.  Multiply by 2.5417464519 to convert [e a0] to [Debye]
 Dipole X            :          0.0000000            0.0000000            0.0000000
 Dipole Y            :          0.0000000            0.0000000            0.0000000
 Dipole Z            :         -0.6244920            1.0028049            0.3783129
 Magnitude           :                                                    0.3783129

 L = 2.  Multiply by 1.3450342976 to convert [e a0^2] to [Debye ang]
 Quadrupole XX       :         -8.0213230            0.0000000           -8.0213230
 Quadrupole XY       :          0.0000000            0.0000000            0.0000000
 Quadrupole XZ       :          0.0000000            0.0000000            0.0000000
 Quadrupole YY       :         -8.0213230            0.0000000           -8.0213230
 Quadrupole YZ       :          0.0000000            0.0000000            0.0000000
 Quadrupole ZZ       :        -12.9671347            4.2591011           -8.7080337
 Traceless XX        :          1.6486039           -1.4197004            0.2289036
 Traceless YY        :          1.6486039           -1.4197004            0.2289036
 Traceless ZZ        :         -3.2972078            2.8394007           -0.4578071

 ------------------------------------------------------------------------------------
  ==> Computing MBIS Charges <==

  Electron Count from Grid (Expected Number):  8.00000 ( 8.00000)
  Difference: -0.00000

  MBIS Charges: (a.u.)
   Center  Symbol  Z      Pop.       Charge
      1       C    6    6.989473   -0.989473
      2       H    1    1.010527   -0.010527

  MBIS Dipoles: [e a0]
   Center  Symbol  Z        X           Y           Z
      1       C    6    0.000000    0.000000    0.232288
      2       H    1   -0.000000    0.000000   -0.000679

  MBIS Quadrupoles: [e a0^2]
   Center  Symbol  Z      XX        XY        XZ        YY        YZ        ZZ
      1       C    6   -7.2449   -0.0000   -0.0000   -7.2449   -0.0000   -7.7064
      2       H    1   -0.7764   -0.0000   -0.0000   -0.7764   -0.0000   -0.8485

  MBIS Octupoles: [e a0^3]
   Center  Symbol  Z      XXX       XXY       XXZ       XYY       XYZ       XZZ       YYY       YYZ       YZZ       ZZZ
      1       C    6    0.0000    0.0000    0.2866   -0.0000   -0.0000   -0.0000    0.0000    0.2866    0.0000   -0.6925
      2       H    1   -0.0000    0.0000   -0.0558   -0.0000   -0.0000   -0.0000   -0.0000   -0.0558   -0.0000   -0.1720

  MBIS Radial Moments:
   Center  Symbol  Z      [a0^2]      [a0^3]      [a0^4]
      1       C    6   22.196251   63.521947   214.303645
      2       H    1    2.401279    5.404829   14.559315

  MBIS Valence Widths: [a0]
   Center  Symbol  Z     Width
      1       C    6    0.596893
      2       H    1    0.442705

*** tstop() called on Mac.lan at Sun Aug 10 17:35:51 2025
Module time:
	user time   =       2.74 seconds =       0.05 minutes
	system time =       2.28 seconds =       0.04 minutes
	total time  =          0 seconds =       0.00 minutes
Total time:
	user time   =      13.09 seconds =       0.22 minutes
	system time =       4.69 seconds =       0.08 minutes
	total time  =          1 seconds =       0.02 minutes

    Psi4 stopped on: Sunday, 10 August 2025 05:35PM
    Psi4 wall time for execution: 0:00:01.73

*** Psi4 exiting successfully. Buy a developer a beer!
