                               Psi4 1.9.1 release

  ==> Input File <==

--------------------------------------------------------------------------
molecule {
-1 1
N           0.000000           0.000000           0.000000
C           0.000000           0.000000           0.519580
}

set {
basis              cc-pvtz
reference          uks
maxiter            500
DAMPING_PERCENTAGE 1
E_CONVERGENCE      1.0E-8
D_CONVERGENCE      1.0E-8
DIIS_MAX_VECS      400
MBIS_MAXITER       8000
guess              read
}

E, wfn = energy('b3lyp', restart_file='last_wfn', return_wfn=True)
properties('b3lyp','MBIS_CHARGES', wfn=wfn)
wfn.to_file('last_wfn')
--------------------------------------------------------------------------

    Molecular point group: c2v
  Charge       = -1
  Multiplicity = 1
  Basis Set: CC-PVTZ
    Blend: CC-PVTZ
  Basis Set: (CC-PVTZ AUX)
    Blend: CC-PVTZ-JKFIT
  @DF-UKS Final Energy:   -88.09420231100627
    Total Energy =                        -88.0942023110062706
 Dipole X            :          0.0000000            0.0000000            0.0000000
 Dipole Y            :          0.0000000            0.0000000            0.0000000
 Dipole Z            :         -0.4813200            0.0006964           -0.4806235
 Magnitude           :                                                    0.4806235
    Molecular point group: c2v

    Geometry (in Angstrom), charge = -1, multiplicity = 1:

       Center              X                  Y                   Z               Mass
    ------------   -----------------  -----------------  -----------------  -----------------
         N            0.000000000000     0.000000000000    -0.239777804691    14.003074004430
         C            0.000000000000     0.000000000000     0.279802195309    12.000000000000

  Charge       = -1
  Multiplicity = 1
  Basis Set: CC-PVTZ
    Blend: CC-PVTZ
  Basis Set: (CC-PVTZ AUX)
    Blend: CC-PVTZ-JKFIT

    Orbital Energies [Eh]
    ---------------------

    Alpha Occupied:

       1A1   -14.323931     2A1   -10.228894     3A1    -0.460970
       1B2    -0.420718     1B1    -0.420718     4A1     0.059298
       5A1     0.183020

    Alpha Virtual:

       2B1     0.397541     2B2     0.397541     6A1     0.418295
       7A1     0.534081     3B1     0.603625     3B2     0.603625
       8A1     0.796031     1A2     0.943043     9A1     0.943043
       4B1     0.980213     4B2     0.980213    10A1     1.224524
       5B1     1.489065     5B2     1.489065    11A1     1.523708
       2A2     1.636977    12A1     1.636977     6B1     1.645198
       6B2     1.645198    13A1     1.842244    14A1     2.428116
       7B2     2.549522     7B1     2.549522     8B1     2.970993
       8B2     2.970993    15A1     3.159032     3A2     3.159032
      16A1     3.212509     9B1     3.370009     9B2     3.370009
      17A1     3.515270     4A2     3.515271    18A1     3.531114
      10B1     3.828940    10B2     3.828940    19A1     4.553084
      11B2     4.725128    11B1     4.725128    12B1     4.769949
      12B2     4.769949     5A2     4.826636    20A1     4.826636
      21A1     5.350376    22A1     6.165883    13B2     6.428330
      13B1     6.428330    23A1     6.813637     6A2     6.813637
      24A1     7.342716    14B2     8.256964    14B1     8.256964
      25A1    10.230089    26A1    24.125028

    Beta Occupied:

       1A1   -14.323931     2A1   -10.228894     3A1    -0.460970
       1B2    -0.420718     1B1    -0.420718     4A1     0.059298
       5A1     0.183020

    Beta Virtual:

       2B1     0.397541     2B2     0.397541     6A1     0.418295
       7A1     0.534081     3B1     0.603625     3B2     0.603625
       8A1     0.796031     1A2     0.943043     9A1     0.943043
       4B1     0.980213     4B2     0.980213    10A1     1.224524
       5B1     1.489065     5B2     1.489065    11A1     1.523708
       2A2     1.636977    12A1     1.636977     6B1     1.645198
       6B2     1.645198    13A1     1.842244    14A1     2.428116
       7B2     2.549522     7B1     2.549522     8B1     2.970993
       8B2     2.970993    15A1     3.159032     3A2     3.159032
      16A1     3.212509     9B1     3.370009     9B2     3.370009
      17A1     3.515270     4A2     3.515271    18A1     3.531114
      10B1     3.828940    10B2     3.828940    19A1     4.553084
      11B2     4.725128    11B1     4.725128    12B1     4.769949
      12B2     4.769949     5A2     4.826636    20A1     4.826636
      21A1     5.350376    22A1     6.165883    13B2     6.428330
      13B1     6.428330    23A1     6.813637     6A2     6.813637
      24A1     7.342716    14B2     8.256964    14B1     8.256964
      25A1    10.230089    26A1    24.125028

    Final Occupation by Irrep:
             A1    A2    B1    B2
    DOCC [     5,    0,    1,    1 ]
    SOCC [     0,    0,    0,    0 ]
    NA   [     5,    0,    1,    1 ]
    NB   [     5,    0,    1,    1 ]

  @DF-UKS Final Energy:   -88.09420231142435

   => Energetics <=

    Nuclear Repulsion Energy =             42.7757859196658856
    One-Electron Energy =                -202.5498343812658106
    Two-Electron Energy =                  82.7842902853962954
    DFT Exchange-Correlation Energy =     -11.1044441352207173
    Empirical Dispersion Energy =           0.0000000000000000
    VV10 Nonlocal Energy =                  0.0000000000000000
    Total Energy =                        -88.0942023114243540

  UHF NO Occupations:
  HONO-2 :    4 A1 2.0000000
  HONO-1 :    1 B1 2.0000000
  HONO-0 :    5 A1 2.0000000
  LUNO+0 :    6 A1 0.0000000
  LUNO+1 :    7 A1 0.0000000
  LUNO+2 :    8 A1 0.0000000
  LUNO+3 :    9 A1 0.0000000

Computation Completed

Properties will be evaluated at   0.000000,   0.000000,   0.000000 [a0]

Properties computed using the B3LYP density matrix

 Multipole Moments:

 ------------------------------------------------------------------------------------
     Multipole            Electronic (a.u.)      Nuclear  (a.u.)        Total (a.u.)
 ------------------------------------------------------------------------------------

 L = 1.  Multiply by 2.5417464519 to convert [e a0] to [Debye]
 Dipole X            :          0.0000000            0.0000000            0.0000000
 Dipole Y            :          0.0000000            0.0000000            0.0000000
 Dipole Z            :         -0.4813200            0.0006964           -0.4806235
 Magnitude           :                                                    0.4806235

 L = 2.  Multiply by 1.3450342976 to convert [e a0^2] to [Debye ang]
 Quadrupole XX       :         -8.1167615            0.0000000           -8.1167615
 Quadrupole XY       :          0.0000000            0.0000000            0.0000000
 Quadrupole XZ       :          0.0000000            0.0000000            0.0000000
 Quadrupole YY       :         -8.1167615            0.0000000           -8.1167615
 Quadrupole YZ       :          0.0000000            0.0000000            0.0000000
 Quadrupole ZZ       :        -16.7097803            3.1146448          -13.5951355
 Traceless XX        :          2.8643396           -1.0382149            1.8261247
 Traceless YY        :          2.8643396           -1.0382149            1.8261247
 Traceless ZZ        :         -5.7286792            2.0764299           -3.6522493

 ------------------------------------------------------------------------------------
  ==> Computing MBIS Charges <==

  Electron Count from Grid (Expected Number): 14.00000 (14.00000)
  Difference: -0.00000

  MBIS Charges: (a.u.)
   Center  Symbol  Z      Pop.       Charge
      1       N    7    7.292163   -0.292163
      2       C    6    6.707836   -0.707836

  MBIS Dipoles: [e a0]
   Center  Symbol  Z        X           Y           Z
      1       N    7   -0.000000    0.000000    0.159783
      2       C    6    0.000000   -0.000000   -0.398521

  MBIS Quadrupoles: [e a0^2]
   Center  Symbol  Z      XX        XY        XZ        YY        YZ        ZZ
      1       N    7   -3.0438    0.0000    0.0000   -3.0438    0.0000   -4.3054
      2       C    6   -5.0729    0.0000    0.0000   -5.0729    0.0000   -8.4656

  MBIS Octupoles: [e a0^3]
   Center  Symbol  Z      XXX       XXY       XXZ       XYY       XYZ       XZZ       YYY       YYZ       YZZ       ZZZ
      1       N    7   -0.0000   -0.0000    0.3941   -0.0000   -0.0000    0.0000   -0.0000    0.3941   -0.0000    1.8956
      2       C    6    0.0000    0.0000   -1.0549    0.0000    0.0000    0.0000   -0.0000   -1.0549    0.0000   -1.4567

  MBIS Radial Moments:
   Center  Symbol  Z      [a0^2]      [a0^3]      [a0^4]
      1       N    7   10.393076   20.465776   49.244602
      2       C    6   18.611468   53.065542   179.269954

  MBIS Valence Widths: [a0]
   Center  Symbol  Z     Width
      1       N    7    0.385932
      2       C    6    0.553783

*** tstop() called on Mac.lan at Sun Aug 10 17:39:58 2025
Module time:
	user time   =       4.22 seconds =       0.07 minutes
	system time =       3.26 seconds =       0.05 minutes
	total time  =          1 seconds =       0.02 minutes
Total time:
	user time   =      19.68 seconds =       0.33 minutes
	system time =       5.44 seconds =       0.09 minutes
	total time  =          2 seconds =       0.03 minutes

    Psi4 stopped on: Sunday, 10 August 2025 05:39PM
    Psi4 wall time for execution: 0:00:02.42

*** Psi4 exiting successfully. Buy a developer a beer!
