                               Psi4 1.9.1 release

  ==> Input File <==

--------------------------------------------------------------------------
molecule {
-1 2
O           0.000000           0.000000           0.000000
O           0.000000           0.000000           1.679420
}

set {
basis              cc-pvtz
reference          uks
maxiter            500
DAMPING_PERCENTAGE 1
E_CONVERGENCE      1.0E-8
D_CONVERGENCE      1.0E-8
DIIS_MAX_VECS      400
MBIS_MAXITER       8000
guess              read
}

E, wfn = energy('b3lyp', restart_file='last_wfn', return_wfn=True)
properties('b3lyp','MBIS_CHARGES', wfn=wfn)
wfn.to_file('last_wfn')
--------------------------------------------------------------------------

    Molecular point group: d2h
  Charge       = -1
  Multiplicity = 2
  Basis Set: CC-PVTZ
    Blend: CC-PVTZ
  Basis Set: (CC-PVTZ AUX)
    Blend: CC-PVTZ-JKFIT
  @DF-UKS Final Energy:  -150.33357007325682
    Total Energy =                       -150.3335700732568228
 Dipole X            :          0.0000000            0.0000000            0.0000000
 Dipole Y            :          0.0000000            0.0000000            0.0000000
 Dipole Z            :          0.0000000            0.0000000            0.0000000
 Magnitude           :                                                    0.0000000
    Molecular point group: d2h

    Geometry (in Angstrom), charge = -1, multiplicity = 2:

       Center              X                  Y                   Z               Mass
    ------------   -----------------  -----------------  -----------------  -----------------
         O            0.000000000000     0.000000000000    -0.839710000000    15.994914619570
         O            0.000000000000     0.000000000000     0.839710000000    15.994914619570

  Charge       = -1
  Multiplicity = 2
  Basis Set: CC-PVTZ
    Blend: CC-PVTZ
  Basis Set: (CC-PVTZ AUX)
    Blend: CC-PVTZ-JKFIT

    Orbital Energies [Eh]
    ---------------------

    Alpha Occupied:

       1Ag   -18.869494     1B1u  -18.869467     2Ag    -0.671863
       2B1u   -0.532065     3Ag    -0.088128     1B2u   -0.085090
       1B3u   -0.046973     1B3g   -0.001278     1B2g    0.040328

    Alpha Virtual:

       3B1u    0.233493     4B1u    0.788390     2B2u    0.822214
       2B3u    0.845310     4Ag     0.903354     2B3g    0.911219
       2B2g    0.931461     5Ag     1.056012     5B1u    1.431093
       3B2u    1.552616     3B3u    1.573821     6Ag     1.700892
       1B1g    1.701689     7Ag     1.832352     1Au     1.843289
       6B1u    1.843592     3B3g    2.165707     3B2g    2.190449
       7B1u    2.632879     8Ag     3.746808     4B2u    3.817040
       4B3u    3.851707     4B3g    3.916661     4B2g    3.952529
       8B1u    4.270718     5B2u    5.155087     5B3u    5.183599
       9Ag     5.189896     2B1g    5.338745    10Ag     5.341154
       6B2u    5.423867     6B3u    5.423927     5B3g    5.437680
       5B2g    5.437715     9B1u    5.498659     2Au     5.498868
       6B3g    5.708713     6B2g    5.736941    10B1u    5.970231
       7B2u    6.403509    11Ag     6.429149     3B1g    6.429995
       7B3u    6.437333     3Au     6.528830    11B1u    6.528889
      12Ag     6.665938     7B3g    6.866587     7B2g    6.899507
      12B1u    7.539119    13Ag     7.545727    13B1u    8.238676

    Beta Occupied:

       1Ag   -18.855514     1B1u  -18.855466     2Ag    -0.636887
       2B1u   -0.489140     3Ag    -0.075052     1B3u   -0.035044
       1B2u    0.006380     1B2g    0.054559

    Beta Virtual:

       1B3g    0.158820     3B1u    0.250386     4B1u    0.795778
       2B3u    0.851218     2B2u    0.863284     4Ag     0.911900
       2B2g    0.936936     2B3g    0.948554     5Ag     1.066389
       5B1u    1.447099     3B2u    1.574277     3B3u    1.575301
       1B1g    1.725536     6Ag     1.726758     7Ag     1.844238
       1Au     1.870745     6B1u    1.872146     3B2g    2.193881
       3B3g    2.195900     7B1u    2.644959     8Ag     3.755808
       4B3u    3.862307     4B2u    3.878082     4B2g    3.963693
       4B3g    3.979279     8B1u    4.285223     5B2u    5.187530
       5B3u    5.188025     9Ag     5.209472     2B1g    5.362190
      10Ag     5.363547     6B3u    5.458903     6B2u    5.459181
       5B2g    5.473463     5B3g    5.473744     2Au     5.522942
       9B1u    5.524335     6B2g    5.741173     6B3g    5.742465
      10B1u    5.985577     7B3u    6.444622     7B2u    6.456916
       3B1g    6.480379    11Ag     6.483800     3Au     6.578778
      11B1u    6.582243    12Ag     6.679004     7B2g    6.905870
       7B3g    6.916213    12B1u    7.550529    13Ag     7.575910
      13B1u    8.267191

    Final Occupation by Irrep:
             Ag   B1g   B2g   B3g    Au   B1u   B2u   B3u
    DOCC [     3,    0,    1,    0,    0,    2,    1,    1 ]
    SOCC [     0,    0,    0,    1,    0,    0,    0,    0 ]
    NA   [     3,    0,    1,    1,    0,    2,    1,    1 ]
    NB   [     3,    0,    1,    0,    0,    2,    1,    1 ]

  @DF-UKS Final Energy:  -150.33357007298639

   => Energetics <=

    Nuclear Repulsion Energy =             20.1660939389074798
    One-Electron Energy =                -252.9869625365309673
    Two-Electron Energy =                  96.4009329648360023
    DFT Exchange-Correlation Energy =     -13.9136344401989245
    Empirical Dispersion Energy =           0.0000000000000000
    VV10 Nonlocal Energy =                  0.0000000000000000
    Total Energy =                       -150.3335700729864186

  UHF NO Occupations:
  HONO-2 :    2B1u 1.9997763
  HONO-1 :    1B2u 1.9979692
  HONO-0 :    1B3g 1.0000000
  LUNO+0 :    2B2u 0.0020308
  LUNO+1 :    3B1u 0.0002237
  LUNO+2 :    4 Ag 0.0001559
  LUNO+3 :    2B3u 0.0000550

Computation Completed

Properties will be evaluated at   0.000000,   0.000000,   0.000000 [a0]

Properties computed using the B3LYP density matrix

 Multipole Moments:

 ------------------------------------------------------------------------------------
     Multipole            Electronic (a.u.)      Nuclear  (a.u.)        Total (a.u.)
 ------------------------------------------------------------------------------------

 L = 1.  Multiply by 2.5417464519 to convert [e a0] to [Debye]
 Dipole X            :          0.0000000            0.0000000            0.0000000
 Dipole Y            :          0.0000000            0.0000000            0.0000000
 Dipole Z            :          0.0000000            0.0000000            0.0000000
 Magnitude           :                                                    0.0000000

 L = 2.  Multiply by 1.3450342976 to convert [e a0^2] to [Debye ang]
 Quadrupole XX       :         -9.8800541            0.0000000           -9.8800541
 Quadrupole XY       :          0.0000000            0.0000000            0.0000000
 Quadrupole XZ       :          0.0000000            0.0000000            0.0000000
 Quadrupole YY       :         -9.0855609            0.0000000           -9.0855609
 Quadrupole YZ       :          0.0000000            0.0000000            0.0000000
 Quadrupole ZZ       :        -51.8537654           40.2880611          -11.5657043
 Traceless XX        :         13.7264060          -13.4293537            0.2970523
 Traceless YY        :         14.5208992          -13.4293537            1.0915455
 Traceless ZZ        :        -28.2473053           26.8587074           -1.3885978

 ------------------------------------------------------------------------------------
  ==> Computing MBIS Charges <==

  Electron Count from Grid (Expected Number): 17.00000 (17.00000)
  Difference: -0.00000

  MBIS Charges: (a.u.)
   Center  Symbol  Z      Pop.       Charge
      1       O    8    8.499999   -0.499999
      2       O    8    8.499999   -0.499999

  MBIS Dipoles: [e a0]
   Center  Symbol  Z        X           Y           Z
      1       O    8   -0.000000   -0.000000    0.077355
      2       O    8   -0.000000   -0.000000   -0.077355

  MBIS Quadrupoles: [e a0^2]
   Center  Symbol  Z      XX        XY        XZ        YY        YZ        ZZ
      1       O    8   -4.9400   -0.0000    0.0000   -4.5428   -0.0000   -4.2784
      2       O    8   -4.9400   -0.0000   -0.0000   -4.5428    0.0000   -4.2784

  MBIS Octupoles: [e a0^3]
   Center  Symbol  Z      XXX       XXY       XXZ       XYY       XYZ       XZZ       YYY       YYZ       YZZ       ZZZ
      1       O    8   -0.0000   -0.0000    0.0901    0.0000   -0.0000    0.0000   -0.0000   -0.0134   -0.0000   -0.3078
      2       O    8   -0.0000   -0.0000   -0.0901   -0.0000    0.0000   -0.0000   -0.0000    0.0134   -0.0000    0.3078

  MBIS Radial Moments:
   Center  Symbol  Z      [a0^2]      [a0^3]      [a0^4]
      1       O    8   13.761160   27.753337   66.725472
      2       O    8   13.761160   27.753337   66.725472

  MBIS Valence Widths: [a0]
   Center  Symbol  Z     Width
      1       O    8    0.410335
      2       O    8    0.410335

*** tstop() called on Mac.lan at Sun Aug 10 17:28:43 2025
Module time:
	user time   =       3.64 seconds =       0.06 minutes
	system time =       1.93 seconds =       0.03 minutes
	total time  =          0 seconds =       0.00 minutes
Total time:
	user time   =      15.36 seconds =       0.26 minutes
	system time =       3.99 seconds =       0.07 minutes
	total time  =          1 seconds =       0.02 minutes

    Psi4 stopped on: Sunday, 10 August 2025 05:28PM
    Psi4 wall time for execution: 0:00:01.89

*** Psi4 exiting successfully. Buy a developer a beer!
