                               Psi4 1.9.1 release

  ==> Input File <==

--------------------------------------------------------------------------
molecule {
-1 2
O           0.000000           0.000000           0.000000
O           0.000000           0.000000           1.520724
}

set {
basis              cc-pvtz
reference          uks
maxiter            500
DAMPING_PERCENTAGE 1
E_CONVERGENCE      1.0E-8
D_CONVERGENCE      1.0E-8
DIIS_MAX_VECS      400
MBIS_MAXITER       8000
guess              read
}

E, wfn = energy('b3lyp', restart_file='last_wfn', return_wfn=True)
properties('b3lyp','MBIS_CHARGES', wfn=wfn)
wfn.to_file('last_wfn')
--------------------------------------------------------------------------

    Molecular point group: d2h
  Charge       = -1
  Multiplicity = 2
  Basis Set: CC-PVTZ
    Blend: CC-PVTZ
  Basis Set: (CC-PVTZ AUX)
    Blend: CC-PVTZ-JKFIT
  @DF-UKS Final Energy:  -150.36249014445673
    Total Energy =                       -150.3624901444567286
 Dipole X            :          0.0000000            0.0000000            0.0000000
 Dipole Y            :          0.0000000            0.0000000            0.0000000
 Dipole Z            :          0.0000000            0.0000000            0.0000000
 Magnitude           :                                                    0.0000000
    Molecular point group: d2h

    Geometry (in Angstrom), charge = -1, multiplicity = 2:

       Center              X                  Y                   Z               Mass
    ------------   -----------------  -----------------  -----------------  -----------------
         O            0.000000000000     0.000000000000    -0.760362000000    15.994914619570
         O            0.000000000000     0.000000000000     0.760362000000    15.994914619570

  Charge       = -1
  Multiplicity = 2
  Basis Set: CC-PVTZ
    Blend: CC-PVTZ
  Basis Set: (CC-PVTZ AUX)
    Blend: CC-PVTZ-JKFIT

    Orbital Energies [Eh]
    ---------------------

    Alpha Occupied:

       1Ag   -18.854528     1B1u  -18.854487     2Ag    -0.708585
       2B1u   -0.497616     3Ag    -0.101980     1B2u   -0.096199
       1B3u   -0.057886     1B3g    0.025218     1B2g    0.067302

    Alpha Virtual:

       3B1u    0.313641     4B1u    0.784397     2B2u    0.832967
       2B3u    0.856123     4Ag     0.895387     2B3g    0.917692
       2B2g    0.938057     5Ag     1.051363     5B1u    1.483196
       3B2u    1.559985     3B3u    1.582310     6Ag     1.673391
       1B1g    1.673473     1Au     1.885543     6B1u    1.885854
       7Ag     2.041198     3B3g    2.289406     3B2g    2.314832
       7B1u    2.611023     8Ag     3.755555     4B2u    3.792143
       4B3u    3.826596     4B3g    3.953794     4B2g    3.990447
       8B1u    4.555894     5B2u    5.052779     5B3u    5.081764
       9Ag     5.139208     2B1g    5.245511    10Ag     5.248576
       6B2u    5.415543     6B3u    5.415586     5B3g    5.458122
       5B2g    5.458141     2Au     5.612653     9B1u    5.612715
       6B3g    5.986392     6B2g    6.015878    10B1u    6.286815
      11Ag     6.432929     3B1g    6.433199     7B2u    6.486903
       7B3u    6.521047     3Au     6.568532    11B1u    6.568817
      12Ag     6.842205     7B3g    7.048823     7B2g    7.081149
      12B1u    7.573001    13Ag     7.723597    13B1u    8.629299

    Beta Occupied:

       1Ag   -18.840394     1B1u  -18.840322     2Ag    -0.675391
       2B1u   -0.454409     3Ag    -0.087761     1B3u   -0.046072
       1B2u   -0.007525     1B2g    0.081815

    Beta Virtual:

       1B3g    0.188359     3B1u    0.331385     4B1u    0.791938
       2B3u    0.861950     2B2u    0.872951     4Ag     0.903173
       2B2g    0.943646     2B3g    0.955876     5Ag     1.061406
       5B1u    1.499902     3B2u    1.582203     3B3u    1.583618
       1B1g    1.696356     6Ag     1.697602     1Au     1.913610
       6B1u    1.915057     7Ag     2.055424     3B2g    2.318376
       3B3g    2.320171     7B1u    2.621835     8Ag     3.764480
       4B3u    3.836990     4B2u    3.852908     4B2g    4.001858
       4B3g    4.017198     8B1u    4.571907     5B2u    5.084773
       5B3u    5.086186     9Ag     5.159713     2B1g    5.268303
      10Ag     5.269636     6B3u    5.450689     6B2u    5.450976
       5B2g    5.493982     5B3g    5.494271     2Au     5.636987
       9B1u    5.638407     6B2g    6.020878     6B3g    6.023830
      10B1u    6.302539     3B1g    6.483956    11Ag     6.487505
       7B3u    6.528220     7B2u    6.539943     3Au     6.618524
      11B1u    6.622054    12Ag     6.854273     7B2g    7.086748
       7B3g    7.094631    12B1u    7.591885    13Ag     7.754054
      13B1u    8.649941

    Final Occupation by Irrep:
             Ag   B1g   B2g   B3g    Au   B1u   B2u   B3u
    DOCC [     3,    0,    1,    0,    0,    2,    1,    1 ]
    SOCC [     0,    0,    0,    1,    0,    0,    0,    0 ]
    NA   [     3,    0,    1,    1,    0,    2,    1,    1 ]
    NB   [     3,    0,    1,    0,    0,    2,    1,    1 ]

  @DF-UKS Final Energy:  -150.36249014422162

   => Energetics <=

    Nuclear Repulsion Energy =             22.2705379035775195
    One-Electron Energy =                -257.2874766641159567
    Two-Electron Energy =                  98.6105587974947611
    DFT Exchange-Correlation Energy =     -13.9561101811779444
    Empirical Dispersion Energy =           0.0000000000000000
    VV10 Nonlocal Energy =                  0.0000000000000000
    Total Energy =                       -150.3624901442215958

  UHF NO Occupations:
  HONO-2 :    2B1u 1.9997448
  HONO-1 :    1B2u 1.9981584
  HONO-0 :    1B3g 1.0000000
  LUNO+0 :    2B2u 0.0018416
  LUNO+1 :    3B1u 0.0002552
  LUNO+2 :    4 Ag 0.0001524
  LUNO+3 :    2B3u 0.0000521

Computation Completed

Properties will be evaluated at   0.000000,   0.000000,   0.000000 [a0]

Properties computed using the B3LYP density matrix

 Multipole Moments:

 ------------------------------------------------------------------------------------
     Multipole            Electronic (a.u.)      Nuclear  (a.u.)        Total (a.u.)
 ------------------------------------------------------------------------------------

 L = 1.  Multiply by 2.5417464519 to convert [e a0] to [Debye]
 Dipole X            :          0.0000000            0.0000000            0.0000000
 Dipole Y            :          0.0000000            0.0000000            0.0000000
 Dipole Z            :          0.0000000            0.0000000            0.0000000
 Magnitude           :                                                    0.0000000

 L = 2.  Multiply by 1.3450342976 to convert [e a0^2] to [Debye ang]
 Quadrupole XX       :         -9.7883672            0.0000000           -9.7883672
 Quadrupole XY       :          0.0000000            0.0000000            0.0000000
 Quadrupole XZ       :          0.0000000            0.0000000            0.0000000
 Quadrupole YY       :         -8.9943263            0.0000000           -8.9943263
 Quadrupole YZ       :          0.0000000            0.0000000            0.0000000
 Quadrupole ZZ       :        -44.4371512           33.0337993          -11.4033519
 Traceless XX        :         11.2849144          -11.0112664            0.2736479
 Traceless YY        :         12.0789553          -11.0112664            1.0676888
 Traceless ZZ        :        -23.3638696           22.0225329           -1.3413368

 ------------------------------------------------------------------------------------
  ==> Computing MBIS Charges <==

  Electron Count from Grid (Expected Number): 17.00000 (17.00000)
  Difference: -0.00000

  MBIS Charges: (a.u.)
   Center  Symbol  Z      Pop.       Charge
      1       O    8    8.499999   -0.499999
      2       O    8    8.499999   -0.499999

  MBIS Dipoles: [e a0]
   Center  Symbol  Z        X           Y           Z
      1       O    8   -0.000000    0.000000    0.129193
      2       O    8   -0.000000   -0.000000   -0.129193

  MBIS Quadrupoles: [e a0^2]
   Center  Symbol  Z      XX        XY        XZ        YY        YZ        ZZ
      1       O    8   -4.8942    0.0000   -0.0000   -4.4972    0.0000   -4.2981
      2       O    8   -4.8942    0.0000    0.0000   -4.4972   -0.0000   -4.2981

  MBIS Octupoles: [e a0^3]
   Center  Symbol  Z      XXX       XXY       XXZ       XYY       XYZ       XZZ       YYY       YYZ       YZZ       ZZZ
      1       O    8   -0.0000   -0.0000    0.1800    0.0000   -0.0000    0.0000    0.0000    0.0606    0.0000   -0.2273
      2       O    8   -0.0000   -0.0000   -0.1800    0.0000    0.0000    0.0000    0.0000   -0.0606    0.0000    0.2273

  MBIS Radial Moments:
   Center  Symbol  Z      [a0^2]      [a0^3]      [a0^4]
      1       O    8   13.689450   27.538777   66.075359
      2       O    8   13.689450   27.538777   66.075359

  MBIS Valence Widths: [a0]
   Center  Symbol  Z     Width
      1       O    8    0.409178
      2       O    8    0.409178

*** tstop() called on Mac.lan at Sun Aug 10 17:28:31 2025
Module time:
	user time   =       2.97 seconds =       0.05 minutes
	system time =       2.58 seconds =       0.04 minutes
	total time  =          1 seconds =       0.02 minutes
Total time:
	user time   =      15.03 seconds =       0.25 minutes
	system time =       4.82 seconds =       0.08 minutes
	total time  =          2 seconds =       0.03 minutes

    Psi4 stopped on: Sunday, 10 August 2025 05:28PM
    Psi4 wall time for execution: 0:00:01.93

*** Psi4 exiting successfully. Buy a developer a beer!
