                               Psi4 1.9.1 release

  ==> Input File <==

--------------------------------------------------------------------------
molecule {
-1 1
O           0.000000           0.000000           0.000000
H           0.000000           0.000000           1.137529
}

set {
basis              cc-pvtz
reference          uks
maxiter            500
DAMPING_PERCENTAGE 1
E_CONVERGENCE      1.0E-8
D_CONVERGENCE      1.0E-8
DIIS_MAX_VECS      400
MBIS_MAXITER       8000
guess              read
}

E, wfn = energy('b3lyp', restart_file='last_wfn', return_wfn=True)
properties('b3lyp','MBIS_CHARGES', wfn=wfn)
wfn.to_file('last_wfn')
--------------------------------------------------------------------------

    Molecular point group: c2v
  Charge       = -1
  Multiplicity = 1
  Basis Set: CC-PVTZ
    Blend: CC-PVTZ
  Basis Set: (CC-PVTZ AUX)
    Blend: CC-PVTZ-JKFIT
  @DF-UKS Final Energy:   -75.77495245060604
    Total Energy =                        -75.7749524506060510
 Dipole X            :          0.0000000            0.0000000            0.0000000
 Dipole Y            :          0.0000000            0.0000000            0.0000000
 Dipole Z            :         -0.7619701            1.0028647            0.2408947
 Magnitude           :                                                    0.2408947
    Molecular point group: c2v

    Geometry (in Angstrom), charge = -1, multiplicity = 1:

       Center              X                  Y                   Z               Mass
    ------------   -----------------  -----------------  -----------------  -----------------
         O            0.000000000000     0.000000000000    -0.067426204516    15.994914619570
         H            0.000000000000     0.000000000000     1.070102795484     1.007825032230

  Charge       = -1
  Multiplicity = 1
  Basis Set: CC-PVTZ
    Blend: CC-PVTZ
  Basis Set: (CC-PVTZ AUX)
    Blend: CC-PVTZ-JKFIT

    Orbital Energies [Eh]
    ---------------------

    Alpha Occupied:

       1A1   -18.701078     2A1    -0.496777     3A1    -0.023284
       1B1     0.108885     1B2     0.108885

    Alpha Virtual:

       4A1     0.297257     5A1     0.627655     6A1     0.873794
       2B2     0.918554     2B1     0.918554     3B2     1.029302
       3B1     1.029302     7A1     1.296226     8A1     1.454720
       1A2     1.879187     9A1     1.879187     4B1     2.086775
       4B2     2.086775    10A1     2.423148    11A1     2.690168
      12A1     3.535750     2A2     3.535750     5B2     3.689260
       5B1     3.689260    13A1     3.860406     6B2     4.024784
       6B1     4.024784     7B1     4.297092     7B2     4.297092
      14A1     4.341918    15A1     5.208715     8B1     5.577254
       8B2     5.577254     3A2     5.671285    16A1     5.671285
       9B2     6.312893     9B1     6.312893    17A1     6.554954
      18A1     6.655527     4A2     6.655527    10B2     6.935089
      10B1     6.935089    19A1     7.275852    20A1     9.253606

    Beta Occupied:

       1A1   -18.701078     2A1    -0.496777     3A1    -0.023284
       1B1     0.108885     1B2     0.108885

    Beta Virtual:

       4A1     0.297257     5A1     0.627655     6A1     0.873794
       2B2     0.918554     2B1     0.918554     3B2     1.029302
       3B1     1.029302     7A1     1.296226     8A1     1.454720
       1A2     1.879187     9A1     1.879187     4B2     2.086775
       4B1     2.086775    10A1     2.423148    11A1     2.690168
      12A1     3.535750     2A2     3.535750     5B2     3.689260
       5B1     3.689260    13A1     3.860406     6B2     4.024784
       6B1     4.024784     7B1     4.297092     7B2     4.297092
      14A1     4.341918    15A1     5.208715     8B2     5.577254
       8B1     5.577254     3A2     5.671285    16A1     5.671285
       9B2     6.312893     9B1     6.312893    17A1     6.554954
      18A1     6.655527     4A2     6.655527    10B2     6.935089
      10B1     6.935089    19A1     7.275852    20A1     9.253606

    Final Occupation by Irrep:
             A1    A2    B1    B2
    DOCC [     3,    0,    1,    1 ]
    SOCC [     0,    0,    0,    0 ]
    NA   [     3,    0,    1,    1 ]
    NB   [     3,    0,    1,    1 ]

  @DF-UKS Final Energy:   -75.77495246079073

   => Energetics <=

    Nuclear Repulsion Energy =              3.7215909971174361
    One-Electron Energy =                -115.6655072902925383
    Two-Electron Energy =                  43.5737706131179294
    DFT Exchange-Correlation Energy =      -7.4048067807335540
    Empirical Dispersion Energy =           0.0000000000000000
    VV10 Nonlocal Energy =                  0.0000000000000000
    Total Energy =                        -75.7749524607907290

  UHF NO Occupations:
  HONO-2 :    1 A1 2.0000000
  HONO-1 :    2 A1 2.0000000
  HONO-0 :    3 A1 2.0000000
  LUNO+0 :    4 A1 0.0000000
  LUNO+1 :    5 A1 0.0000000
  LUNO+2 :    6 A1 0.0000000
  LUNO+3 :    7 A1 0.0000000

Computation Completed

Properties will be evaluated at   0.000000,   0.000000,   0.000000 [a0]

Properties computed using the B3LYP density matrix

 Multipole Moments:

 ------------------------------------------------------------------------------------
     Multipole            Electronic (a.u.)      Nuclear  (a.u.)        Total (a.u.)
 ------------------------------------------------------------------------------------

 L = 1.  Multiply by 2.5417464519 to convert [e a0] to [Debye]
 Dipole X            :          0.0000000            0.0000000            0.0000000
 Dipole Y            :          0.0000000            0.0000000            0.0000000
 Dipole Z            :         -0.7619701            1.0028647            0.2408947
 Magnitude           :                                                    0.2408947

 L = 2.  Multiply by 1.3450342976 to convert [e a0^2] to [Debye ang]
 Quadrupole XX       :         -6.4860400            0.0000000           -6.4860400
 Quadrupole XY       :          0.0000000            0.0000000            0.0000000
 Quadrupole XZ       :          0.0000000            0.0000000            0.0000000
 Quadrupole YY       :         -6.4860400            0.0000000           -6.4860400
 Quadrupole YZ       :          0.0000000            0.0000000            0.0000000
 Quadrupole ZZ       :         -9.7211847            4.2191786           -5.5020062
 Traceless XX        :          1.0783816           -1.4063929           -0.3280113
 Traceless YY        :          1.0783816           -1.4063929           -0.3280113
 Traceless ZZ        :         -2.1567632            2.8127857            0.6560225

 ------------------------------------------------------------------------------------
  ==> Computing MBIS Charges <==

  Electron Count from Grid (Expected Number): 10.00000 (10.00000)
  Difference:  0.00000

  MBIS Charges: (a.u.)
   Center  Symbol  Z      Pop.       Charge
      1       O    8    9.096520   -1.096520
      2       H    1    0.903480    0.096520

  MBIS Dipoles: [e a0]
   Center  Symbol  Z        X           Y           Z
      1       O    8    0.000000   -0.000000   -0.108581
      2       H    1    0.000000   -0.000000    0.014577

  MBIS Quadrupoles: [e a0^2]
   Center  Symbol  Z      XX        XY        XZ        YY        YZ        ZZ
      1       O    8   -5.6700   -0.0000    0.0000   -5.6700   -0.0000   -5.1639
      2       H    1   -0.8160   -0.0000    0.0000   -0.8160   -0.0000   -0.8016

  MBIS Octupoles: [e a0^3]
   Center  Symbol  Z      XXX       XXY       XXZ       XYY       XYZ       XZZ       YYY       YYZ       YZZ       ZZZ
      1       O    8   -0.0000   -0.0000   -0.1904    0.0000   -0.0000    0.0000   -0.0000   -0.1904   -0.0000   -0.9432
      2       H    1    0.0000   -0.0000   -0.0001    0.0000   -0.0000    0.0000   -0.0000   -0.0001   -0.0000   -0.0090

  MBIS Radial Moments:
   Center  Symbol  Z      [a0^2]      [a0^3]      [a0^4]
      1       O    8   16.503904   34.882206   87.429494
      2       H    1    2.433703    5.751344   16.088651

  MBIS Valence Widths: [a0]
   Center  Symbol  Z     Width
      1       O    8    0.431993
      2       H    1    0.472348

*** tstop() called on Mac.lan at Sun Aug 10 17:38:12 2025
Module time:
	user time   =       3.18 seconds =       0.05 minutes
	system time =       1.76 seconds =       0.03 minutes
	total time  =          1 seconds =       0.02 minutes
Total time:
	user time   =      12.09 seconds =       0.20 minutes
	system time =       3.68 seconds =       0.06 minutes
	total time  =          2 seconds =       0.03 minutes

    Psi4 stopped on: Sunday, 10 August 2025 05:38PM
    Psi4 wall time for execution: 0:00:01.54

*** Psi4 exiting successfully. Buy a developer a beer!
