                               Psi4 1.9.1 release

  ==> Input File <==

--------------------------------------------------------------------------
molecule {
-1 3
C           0.000000           0.000000           0.000000
H           0.000000           0.000000           0.402958
}

set {
basis              cc-pvtz
reference          uks
maxiter            500
DAMPING_PERCENTAGE 1
E_CONVERGENCE      1.0E-8
D_CONVERGENCE      1.0E-8
DIIS_MAX_VECS      400
MBIS_MAXITER       8000
guess              read
}

E, wfn = energy('b3lyp', restart_file='last_wfn', return_wfn=True)
properties('b3lyp','MBIS_CHARGES', wfn=wfn)
wfn.to_file('last_wfn')
--------------------------------------------------------------------------

    Molecular point group: c2v
  Charge       = -1
  Multiplicity = 3
  Basis Set: CC-PVTZ
    Blend: CC-PVTZ
  Basis Set: (CC-PVTZ AUX)
    Blend: CC-PVTZ-JKFIT
  @DF-UKS Final Energy:   -36.79276080500055
    Total Energy =                        -36.7927608050005475
 Dipole X            :          0.0000000            0.0000000            0.0000000
 Dipole Y            :          0.0000000            0.0000000            0.0000000
 Dipole Z            :          0.5553073            0.3484925            0.9037998
 Magnitude           :                                                    0.9037998
    Molecular point group: c2v

    Geometry (in Angstrom), charge = -1, multiplicity = 3:

       Center              X                  Y                   Z               Mass
    ------------   -----------------  -----------------  -----------------  -----------------
         C            0.000000000000     0.000000000000    -0.031220527516    12.000000000000
         H            0.000000000000     0.000000000000     0.371737472484     1.007825032230

  Charge       = -1
  Multiplicity = 3
  Basis Set: CC-PVTZ
    Blend: CC-PVTZ
  Basis Set: (CC-PVTZ AUX)
    Blend: CC-PVTZ-JKFIT

    Orbital Energies [Eh]
    ---------------------

    Alpha Occupied:

       1A1    -9.973686     2A1    -0.434799     3A1     0.006879
       1B2     0.084757     1B1     0.084757

    Alpha Virtual:

       4A1     0.294381     5A1     0.508680     2B1     0.563409
       2B2     0.563409     6A1     0.801062     3B2     0.962138
       3B1     0.962138     1A2     0.977267     7A1     0.977267
       8A1     1.037706     9A1     1.377749     4B2     1.553705
       4B1     1.553705    10A1     2.055533     5B1     2.171751
       5B2     2.171751    11A1     2.638983     2A2     2.954008
      12A1     2.954008     6B2     3.012636     6B1     3.012636
      13A1     3.048516     7B1     3.090490     7B2     3.090490
       3A2     3.188062    14A1     3.188062    15A1     3.556791
       8B2     3.686489     8B1     3.686489    16A1     5.087755
       4A2     5.141731    17A1     5.141731     9B1     5.147543
       9B2     5.147543    18A1     6.110805    10B1     7.792290
      10B2     7.792290    19A1    11.089924    20A1    23.450877

    Beta Occupied:

       1A1    -9.947453     2A1    -0.365002     3A1     0.056922

    Beta Virtual:

       1B2     0.246773     1B1     0.246773     4A1     0.304329
       5A1     0.522874     2B1     0.633351     2B2     0.633351
       6A1     0.840291     3B2     0.997667     3B1     0.997667
       1A2     1.052207     7A1     1.052207     8A1     1.065213
       9A1     1.383593     4B2     1.575980     4B1     1.575980
      10A1     2.091920     5B1     2.253079     5B2     2.253079
      11A1     2.679878     2A2     3.010751    12A1     3.010751
      13A1     3.107472     6B2     3.107887     6B1     3.107887
       7B1     3.137039     7B2     3.137039     3A2     3.298135
      14A1     3.298135    15A1     3.583687     8B2     3.730525
       8B1     3.730525    16A1     5.126356     9B1     5.186102
       9B2     5.186102    17A1     5.199264     4A2     5.199264
      18A1     6.143903    10B1     7.834759    10B2     7.834759
      19A1    11.100752    20A1    23.473858

    Final Occupation by Irrep:
             A1    A2    B1    B2
    DOCC [     3,    0,    0,    0 ]
    SOCC [     0,    0,    1,    1 ]
    NA   [     3,    0,    1,    1 ]
    NB   [     3,    0,    0,    0 ]

  @DF-UKS Final Energy:   -36.79276080496491

   => Energetics <=

    Nuclear Repulsion Energy =              7.8793900704788102
    One-Electron Energy =                 -65.1753830798810725
    Two-Electron Energy =                  25.6163644797509065
    DFT Exchange-Correlation Energy =      -5.1131322753135535
    Empirical Dispersion Energy =           0.0000000000000000
    VV10 Nonlocal Energy =                  0.0000000000000000
    Total Energy =                        -36.7927608049649066

  UHF NO Occupations:
  HONO-2 :    3 A1 1.9970477
  HONO-1 :    1 B2 1.0000000
  HONO-0 :    1 B1 1.0000000
  LUNO+0 :    4 A1 0.0029523
  LUNO+1 :    5 A1 0.0001702
  LUNO+2 :    6 A1 0.0000013
  LUNO+3 :    7 A1 0.0000000

Computation Completed

Properties will be evaluated at   0.000000,   0.000000,   0.000000 [a0]

Properties computed using the B3LYP density matrix

 Multipole Moments:

 ------------------------------------------------------------------------------------
     Multipole            Electronic (a.u.)      Nuclear  (a.u.)        Total (a.u.)
 ------------------------------------------------------------------------------------

 L = 1.  Multiply by 2.5417464519 to convert [e a0] to [Debye]
 Dipole X            :          0.0000000            0.0000000            0.0000000
 Dipole Y            :          0.0000000            0.0000000            0.0000000
 Dipole Z            :          0.5553073            0.3484925            0.9037998
 Magnitude           :                                                    0.9037998

 L = 2.  Multiply by 1.3450342976 to convert [e a0^2] to [Debye ang]
 Quadrupole XX       :         -7.4992981            0.0000000           -7.4992981
 Quadrupole XY       :          0.0000000            0.0000000            0.0000000
 Quadrupole XZ       :          0.0000000            0.0000000            0.0000000
 Quadrupole YY       :         -7.4992981            0.0000000           -7.4992981
 Quadrupole YZ       :          0.0000000            0.0000000            0.0000000
 Quadrupole ZZ       :         -7.9671723            0.5143657           -7.4528066
 Traceless XX        :          0.1559581           -0.1714552           -0.0154972
 Traceless YY        :          0.1559581           -0.1714552           -0.0154972
 Traceless ZZ        :         -0.3119162            0.3429105            0.0309943

 ------------------------------------------------------------------------------------
  ==> Computing MBIS Charges <==

  Electron Count from Grid (Expected Number):  8.00000 ( 8.00000)
  Difference:  0.00000

  MBIS Charges: (a.u.)
   Center  Symbol  Z      Pop.       Charge
      1       C    6    7.037369   -1.037369
      2       H    1    0.962631    0.037369

  MBIS Dipoles: [e a0]
   Center  Symbol  Z        X           Y           Z
      1       C    6   -0.000000   -0.000000    0.821123
      2       H    1    0.000000    0.000000   -0.004777

  MBIS Quadrupoles: [e a0^2]
   Center  Symbol  Z      XX        XY        XZ        YY        YZ        ZZ
      1       C    6   -7.2772    0.0000    0.0000   -7.2772   -0.0000   -7.1476
      2       H    1   -0.2221   -0.0000    0.0000   -0.2221    0.0000   -0.2164

  MBIS Octupoles: [e a0^3]
   Center  Symbol  Z      XXX       XXY       XXZ       XYY       XYZ       XZZ       YYY       YYZ       YZZ       ZZZ
      1       C    6    0.0000    0.0000    1.7836   -0.0000   -0.0000   -0.0000    0.0000    1.7836   -0.0000    5.4627
      2       H    1   -0.0000    0.0000    0.0031   -0.0000    0.0000   -0.0000    0.0000    0.0031    0.0000    0.0138

  MBIS Radial Moments:
   Center  Symbol  Z      [a0^2]      [a0^3]      [a0^4]
      1       C    6   21.701965   61.720368   206.708193
      2       H    1    0.660667    0.774949    1.091792

  MBIS Valence Widths: [a0]
   Center  Symbol  Z     Width
      1       C    6    0.584645
      2       H    1    0.241900

*** tstop() called on Mac.lan at Sun Aug 10 17:35:40 2025
Module time:
	user time   =       3.92 seconds =       0.07 minutes
	system time =       3.08 seconds =       0.05 minutes
	total time  =          1 seconds =       0.02 minutes
Total time:
	user time   =      13.30 seconds =       0.22 minutes
	system time =       5.31 seconds =       0.09 minutes
	total time  =          2 seconds =       0.03 minutes

    Psi4 stopped on: Sunday, 10 August 2025 05:35PM
    Psi4 wall time for execution: 0:00:01.81

*** Psi4 exiting successfully. Buy a developer a beer!
