                               Psi4 1.9.1 release

  ==> Input File <==

--------------------------------------------------------------------------
molecule {
-1 3
O           0.000000           0.000000           0.000000
N           0.000000           0.000000           0.563276
}

set {
basis              cc-pvtz
reference          uks
maxiter            500
DAMPING_PERCENTAGE 1
E_CONVERGENCE      1.0E-8
D_CONVERGENCE      1.0E-8
DIIS_MAX_VECS      400
MBIS_MAXITER       8000
guess              read
}

E, wfn = energy('b3lyp', restart_file='last_wfn', return_wfn=True)
properties('b3lyp','MBIS_CHARGES', wfn=wfn)
wfn.to_file('last_wfn')
--------------------------------------------------------------------------

    Molecular point group: c2v
  Charge       = -1
  Multiplicity = 3
  Basis Set: CC-PVTZ
    Blend: CC-PVTZ
  Basis Set: (CC-PVTZ AUX)
    Blend: CC-PVTZ-JKFIT
  @DF-UKS Final Energy:  -125.86210576649934
    Total Energy =                       -125.8621057664993401
 Dipole X            :          0.0000000            0.0000000            0.0000000
 Dipole Y            :          0.0000000            0.0000000            0.0000000
 Dipole Z            :         -2.2659686           -0.0021357           -2.2681043
 Magnitude           :                                                    2.2681043
    Molecular point group: c2v

    Geometry (in Angstrom), charge = -1, multiplicity = 3:

       Center              X                  Y                   Z               Mass
    ------------   -----------------  -----------------  -----------------  -----------------
         O            0.000000000000     0.000000000000    -0.262937479302    15.994914619570
         N            0.000000000000     0.000000000000     0.300338520698    14.003074004430

  Charge       = -1
  Multiplicity = 3
  Basis Set: CC-PVTZ
    Blend: CC-PVTZ
  Basis Set: (CC-PVTZ AUX)
    Blend: CC-PVTZ-JKFIT

    Orbital Energies [Eh]
    ---------------------

    Alpha Occupied:

       1A1   -19.113767     2A1   -14.295794     3A1    -1.219153
       1B2    -0.743504     1B1    -0.743504     4A1    -0.404059
       5A1    -0.164062     2B1     0.409544     2B2     0.409544

    Alpha Virtual:

       6A1     0.438659     3B2     0.568750     3B1     0.568750
       7A1     0.647191     8A1     0.789170     4B1     1.005585
       4B2     1.005585     9A1     1.170085     1A2     1.170085
      10A1     1.534407     5B1     1.799507     5B2     1.799507
      11A1     1.847200     2A2     1.992743    12A1     1.992744
       6B2     2.114923     6B1     2.114923    13A1     2.184680
       7B1     3.004800     7B2     3.004800    14A1     3.407874
      15A1     3.957847     8B2     3.971856     8B1     3.971856
       3A2     4.280950    16A1     4.280950     9B1     4.442464
       9B2     4.442464    17A1     4.559568     4A2     4.663466
      18A1     4.663467    10B1     4.830922    10B2     4.830922
      19A1     5.358419    11B2     5.767237    11B1     5.767237
      12B1     5.859686    12B2     5.859686    20A1     6.190468
       5A2     6.190469    21A1     6.785565    13B1     7.737318
      13B2     7.737318    22A1     8.098242    23A1     8.194907
       6A2     8.194907    24A1     9.798072    14B1     9.831897
      14B2     9.831897    25A1    11.341417    26A1    30.274224

    Beta Occupied:

       1A1   -19.102928     2A1   -14.297399     3A1    -1.207750
       1B1    -0.721782     1B2    -0.721782     4A1    -0.387766
       5A1    -0.132152

    Beta Virtual:

       6A1     0.462879     2B1     0.542036     2B2     0.542036
       3B2     0.573963     3B1     0.573963     7A1     0.672157
       8A1     0.834988     4B1     1.041368     4B2     1.041368
       9A1     1.205073     1A2     1.205073    10A1     1.549400
       5B1     1.833545     5B2     1.833545    11A1     1.858759
       2A2     2.032732    12A1     2.032733     6B2     2.135134
       6B1     2.135134    13A1     2.197744     7B1     3.021129
       7B2     3.021129    14A1     3.428400    15A1     3.965193
       8B2     3.988682     8B1     3.988682     3A2     4.291184
      16A1     4.291185     9B1     4.465263     9B2     4.465263
      17A1     4.567520     4A2     4.688351    18A1     4.688352
      10B1     4.848355    10B2     4.848355    19A1     5.372454
      11B2     5.789212    11B1     5.789212    12B1     5.875981
      12B2     5.875981     5A2     6.217462    20A1     6.217462
      21A1     6.794460    13B1     7.749608    13B2     7.749608
      22A1     8.104216     6A2     8.217141    23A1     8.217142
      24A1     9.813383    14B1     9.849683    14B2     9.849683
      25A1    11.346076    26A1    30.284468

    Final Occupation by Irrep:
             A1    A2    B1    B2
    DOCC [     5,    0,    1,    1 ]
    SOCC [     0,    0,    1,    1 ]
    NA   [     5,    0,    2,    2 ]
    NB   [     5,    0,    1,    1 ]

  @DF-UKS Final Energy:  -125.86210576393415

   => Energetics <=

    Nuclear Repulsion Energy =             52.6099528428692196
    One-Electron Energy =                -274.7079039720906621
    Two-Electron Energy =                 109.9227812672871494
    DFT Exchange-Correlation Energy =     -13.6869359019998740
    Empirical Dispersion Energy =           0.0000000000000000
    VV10 Nonlocal Energy =                  0.0000000000000000
    Total Energy =                       -125.8621057639341529

  UHF NO Occupations:
  HONO-2 :    5 A1 1.9988353
  HONO-1 :    2 B2 1.0000000
  HONO-0 :    2 B1 1.0000000
  LUNO+0 :    6 A1 0.0011647
  LUNO+1 :    3 B2 0.0000589
  LUNO+2 :    3 B1 0.0000589
  LUNO+3 :    7 A1 0.0000397

Computation Completed

Properties will be evaluated at   0.000000,   0.000000,   0.000000 [a0]

Properties computed using the B3LYP density matrix

 Multipole Moments:

 ------------------------------------------------------------------------------------
     Multipole            Electronic (a.u.)      Nuclear  (a.u.)        Total (a.u.)
 ------------------------------------------------------------------------------------

 L = 1.  Multiply by 2.5417464519 to convert [e a0] to [Debye]
 Dipole X            :          0.0000000            0.0000000            0.0000000
 Dipole Y            :          0.0000000            0.0000000            0.0000000
 Dipole Z            :         -2.2659686           -0.0021357           -2.2681043
 Magnitude           :                                                    2.2681043

 L = 2.  Multiply by 1.3450342976 to convert [e a0^2] to [Debye ang]
 Quadrupole XX       :        -10.9971777            0.0000000          -10.9971777
 Quadrupole XY       :          0.0000000            0.0000000            0.0000000
 Quadrupole XZ       :          0.0000000            0.0000000            0.0000000
 Quadrupole YY       :        -10.9971777            0.0000000          -10.9971777
 Quadrupole YZ       :          0.0000000            0.0000000            0.0000000
 Quadrupole ZZ       :        -16.0970725            4.2299675          -11.8671050
 Traceless XX        :          1.6999649           -1.4099892            0.2899758
 Traceless YY        :          1.6999649           -1.4099892            0.2899758
 Traceless ZZ        :         -3.3999299            2.8199783           -0.5799516

 ------------------------------------------------------------------------------------
  ==> Computing MBIS Charges <==

  Electron Count from Grid (Expected Number): 16.00000 (16.00000)
  Difference:  0.00000

  MBIS Charges: (a.u.)
   Center  Symbol  Z      Pop.       Charge
      1       O    8    7.063207    0.936793
      2       N    7    8.936793   -1.936793

  MBIS Dipoles: [e a0]
   Center  Symbol  Z        X           Y           Z
      1       O    8    0.000000    0.000000   -0.045916
      2       N    7    0.000000    0.000000   -0.657474

  MBIS Quadrupoles: [e a0^2]
   Center  Symbol  Z      XX        XY        XZ        YY        YZ        ZZ
      1       O    8   -1.7148   -0.0000   -0.0000   -1.7148   -0.0000   -2.1522
      2       N    7   -9.2824    0.0000    0.0000   -9.2824    0.0000   -8.6216

  MBIS Octupoles: [e a0^3]
   Center  Symbol  Z      XXX       XXY       XXZ       XYY       XYZ       XZZ       YYY       YYZ       YZZ       ZZZ
      1       O    8    0.0000   -0.0000    0.0059   -0.0000   -0.0000    0.0000    0.0000    0.0059   -0.0000    0.2578
      2       N    7    0.0000   -0.0000   -3.7345    0.0000   -0.0000   -0.0000    0.0000   -3.7345   -0.0000   -0.8525

  MBIS Radial Moments:
   Center  Symbol  Z      [a0^2]      [a0^3]      [a0^4]
      1       O    8    5.581865    7.747287   13.019347
      2       N    7   27.186319   75.619297   241.067553

  MBIS Valence Widths: [a0]
   Center  Symbol  Z     Width
      1       O    8    0.288468
      2       N    7    0.565132

*** tstop() called on Mac.lan at Sun Aug 10 17:46:23 2025
Module time:
	user time   =       3.55 seconds =       0.06 minutes
	system time =       3.42 seconds =       0.06 minutes
	total time  =          0 seconds =       0.00 minutes
Total time:
	user time   =      17.16 seconds =       0.29 minutes
	system time =       5.99 seconds =       0.10 minutes
	total time  =          2 seconds =       0.03 minutes

    Psi4 stopped on: Sunday, 10 August 2025 05:46PM
    Psi4 wall time for execution: 0:00:02.23

*** Psi4 exiting successfully. Buy a developer a beer!
