                               Psi4 1.9.1 release

  ==> Input File <==

--------------------------------------------------------------------------
molecule {
-1 2
C           0.000000           0.000000           0.000000
C           0.000000           0.000000           1.766814
}

set {
basis              cc-pvtz
reference          uks
maxiter            500
DAMPING_PERCENTAGE 1
E_CONVERGENCE      1.0E-8
D_CONVERGENCE      1.0E-8
DIIS_MAX_VECS      400
MBIS_MAXITER       8000
guess              read
}

E, wfn = energy('b3lyp', restart_file='last_wfn', return_wfn=True)
properties('b3lyp','MBIS_CHARGES', wfn=wfn)
wfn.to_file('last_wfn')
--------------------------------------------------------------------------

    Molecular point group: d2h
  Charge       = -1
  Multiplicity = 2
  Basis Set: CC-PVTZ
    Blend: CC-PVTZ
  Basis Set: (CC-PVTZ AUX)
    Blend: CC-PVTZ-JKFIT
  @DF-UKS Final Energy:   -75.91461718478423
    Total Energy =                        -75.9146171847842481
 Dipole X            :          0.0000000            0.0000000            0.0000000
 Dipole Y            :          0.0000000            0.0000000            0.0000000
 Dipole Z            :          0.0000000           -0.0000000           -0.0000000
 Magnitude           :                                                    0.0000000
    Molecular point group: d2h

    Geometry (in Angstrom), charge = -1, multiplicity = 2:

       Center              X                  Y                   Z               Mass
    ------------   -----------------  -----------------  -----------------  -----------------
         C            0.000000000000     0.000000000000    -0.883407000000    12.000000000000
         C            0.000000000000     0.000000000000     0.883407000000    12.000000000000

  Charge       = -1
  Multiplicity = 2
  Basis Set: CC-PVTZ
    Blend: CC-PVTZ
  Basis Set: (CC-PVTZ AUX)
    Blend: CC-PVTZ-JKFIT

    Orbital Energies [Eh]
    ---------------------

    Alpha Occupied:

       1Ag   -10.011143     1B1u  -10.011002     2Ag    -0.376573
       2B1u   -0.205875     3Ag    -0.041254     1B2u    0.018462
       1B3u    0.018462

    Alpha Virtual:

       1B3g    0.180613     1B2g    0.180613     3B1u    0.325730
       4B1u    0.503262     4Ag     0.519419     2B2u    0.541200
       2B3u    0.541200     2B2g    0.588680     2B3g    0.588680
       5Ag     0.608927     6Ag     0.865731     1B1g    0.865731
       5B1u    0.875433     3B2u    0.887319     3B3u    0.887319
       1Au     1.046342     6B1u    1.046342     7Ag     1.285008
       3B2g    1.305030     3B3g    1.305030     7B1u    1.349824
       4B2u    2.164040     4B3u    2.164040     8Ag     2.215131
       4B3g    2.299642     4B2g    2.299642     5B2u    2.705115
       5B3u    2.705115     9Ag     2.733183    10Ag     2.738616
       2B1g    2.738616     8B1u    2.742349     6B2u    2.915678
       6B3u    2.915678     5B2g    3.001942     5B3g    3.001942
       9B1u    3.178140     2Au     3.178143    11Ag     3.202246
       3B1g    3.202255     6B2g    3.310520     6B3g    3.310520
      10B1u    3.321426    11B1u    3.334142     3Au     3.334150
       7B3u    3.340930     7B2u    3.340930    12B1u    3.680917
      12Ag     3.742031     7B3g    3.899501     7B2g    3.899501
      13Ag     4.241008    13B1u    5.865248

    Beta Occupied:

       1Ag   -10.003839     1B1u  -10.003767     2Ag    -0.344973
       2B1u   -0.158687     1B2u    0.025570     1B3u    0.025570

    Beta Virtual:

       3Ag     0.088656     1B3g    0.189808     1B2g    0.189808
       3B1u    0.348094     2B2u    0.544990     2B3u    0.544990
       4Ag     0.549369     4B1u    0.556203     2B2g    0.592256
       2B3g    0.592256     5Ag     0.622122     6Ag     0.867171
       1B1g    0.867171     5B1u    0.884670     3B2u    0.912162
       3B3u    0.912162     1Au     1.048289     6B1u    1.048289
       7Ag     1.316375     3B2g    1.326053     3B3g    1.326053
       7B1u    1.386686     4B2u    2.173671     4B3u    2.173671
       8Ag     2.260333     4B3g    2.303413     4B2g    2.303413
       5B2u    2.733820     5B3u    2.733820     9Ag     2.760033
       2B1g    2.760034     8B1u    2.773464    10Ag     2.775446
       6B3u    2.915262     6B2u    2.915262     5B2g    3.001201
       5B3g    3.001201     9B1u    3.180979     2Au     3.180983
      11Ag     3.203165     3B1g    3.203174     6B2g    3.345333
       6B3g    3.345333    10B1u    3.350585     3Au     3.350592
      11B1u    3.372670     7B3u    3.379650     7B2u    3.379650
      12B1u    3.721303    12Ag     3.793993     7B3g    3.933659
       7B2g    3.933659    13Ag     4.257490    13B1u    5.887277

    Final Occupation by Irrep:
             Ag   B1g   B2g   B3g    Au   B1u   B2u   B3u
    DOCC [     2,    0,    0,    0,    0,    2,    1,    1 ]
    SOCC [     1,    0,    0,    0,    0,    0,    0,    0 ]
    NA   [     3,    0,    0,    0,    0,    2,    1,    1 ]
    NB   [     2,    0,    0,    0,    0,    2,    1,    1 ]

  @DF-UKS Final Energy:   -75.91461718491830

   => Energetics <=

    Nuclear Repulsion Energy =             10.7823345208493944
    One-Electron Energy =                -126.1207768866806589
    Two-Electron Energy =                  48.0198072022335936
    DFT Exchange-Correlation Energy =      -8.5959820213206211
    Empirical Dispersion Energy =           0.0000000000000000
    VV10 Nonlocal Energy =                  0.0000000000000000
    Total Energy =                        -75.9146171849182991

  UHF NO Occupations:
  HONO-2 :    2 Ag 1.9995732
  HONO-1 :    2B1u 1.9969984
  HONO-0 :    3 Ag 1.0000000
  LUNO+0 :    3B1u 0.0030016
  LUNO+1 :    4 Ag 0.0004268
  LUNO+2 :    2B2u 0.0000991
  LUNO+3 :    2B3u 0.0000991

Computation Completed

Properties will be evaluated at   0.000000,   0.000000,   0.000000 [a0]

Properties computed using the B3LYP density matrix

 Multipole Moments:

 ------------------------------------------------------------------------------------
     Multipole            Electronic (a.u.)      Nuclear  (a.u.)        Total (a.u.)
 ------------------------------------------------------------------------------------

 L = 1.  Multiply by 2.5417464519 to convert [e a0] to [Debye]
 Dipole X            :          0.0000000            0.0000000            0.0000000
 Dipole Y            :          0.0000000            0.0000000            0.0000000
 Dipole Z            :          0.0000000           -0.0000000           -0.0000000
 Magnitude           :                                                    0.0000000

 L = 2.  Multiply by 1.3450342976 to convert [e a0^2] to [Debye ang]
 Quadrupole XX       :        -12.6724585            0.0000000          -12.6724585
 Quadrupole XY       :          0.0000000            0.0000000            0.0000000
 Quadrupole XZ       :          0.0000000            0.0000000            0.0000000
 Quadrupole YY       :        -12.6724585            0.0000000          -12.6724585
 Quadrupole YZ       :          0.0000000            0.0000000            0.0000000
 Quadrupole ZZ       :        -47.4729811           33.4426476          -14.0303334
 Traceless XX        :         11.6001742          -11.1475492            0.4526250
 Traceless YY        :         11.6001742          -11.1475492            0.4526250
 Traceless ZZ        :        -23.2003484           22.2950984           -0.9052500

 ------------------------------------------------------------------------------------
  ==> Computing MBIS Charges <==

  Electron Count from Grid (Expected Number): 13.00000 (13.00000)
  Difference: -0.00000

  MBIS Charges: (a.u.)
   Center  Symbol  Z      Pop.       Charge
      1       C    6    6.500000   -0.500000
      2       C    6    6.500000   -0.500000

  MBIS Dipoles: [e a0]
   Center  Symbol  Z        X           Y           Z
      1       C    6   -0.000000    0.000000   -0.150289
      2       C    6   -0.000000    0.000000    0.150289

  MBIS Quadrupoles: [e a0^2]
   Center  Symbol  Z      XX        XY        XZ        YY        YZ        ZZ
      1       C    6   -6.3362    0.0000   -0.0000   -6.3362   -0.0000   -6.1235
      2       C    6   -6.3362    0.0000    0.0000   -6.3362    0.0000   -6.1235

  MBIS Octupoles: [e a0^3]
   Center  Symbol  Z      XXX       XXY       XXZ       XYY       XYZ       XZZ       YYY       YYZ       YZZ       ZZZ
      1       C    6   -0.0000   -0.0000   -0.6544   -0.0000    0.0000   -0.0000    0.0000   -0.6544    0.0000   -1.4981
      2       C    6   -0.0000   -0.0000    0.6544   -0.0000   -0.0000   -0.0000    0.0000    0.6544    0.0000    1.4981

  MBIS Radial Moments:
   Center  Symbol  Z      [a0^2]      [a0^3]      [a0^4]
      1       C    6   18.795966   51.735081   168.026603
      2       C    6   18.795966   51.735081   168.026603

  MBIS Valence Widths: [a0]
   Center  Symbol  Z     Width
      1       C    6    0.576918
      2       C    6    0.576918

*** tstop() called on Mac.lan at Sun Aug 10 17:31:45 2025
Module time:
	user time   =       4.06 seconds =       0.07 minutes
	system time =       1.72 seconds =       0.03 minutes
	total time  =          0 seconds =       0.00 minutes
Total time:
	user time   =      17.31 seconds =       0.29 minutes
	system time =       3.81 seconds =       0.06 minutes
	total time  =          2 seconds =       0.03 minutes

    Psi4 stopped on: Sunday, 10 August 2025 05:31PM
    Psi4 wall time for execution: 0:00:02.05

*** Psi4 exiting successfully. Buy a developer a beer!
