                               Psi4 1.9.1 release

  ==> Input File <==

--------------------------------------------------------------------------
molecule {
-1 1
N           0.000000           0.000000           0.000000
C           0.000000           0.000000           0.629468
}

set {
basis              cc-pvtz
reference          uks
maxiter            500
DAMPING_PERCENTAGE 1
E_CONVERGENCE      1.0E-8
D_CONVERGENCE      1.0E-8
DIIS_MAX_VECS      400
MBIS_MAXITER       8000
guess              read
}

E, wfn = energy('b3lyp', restart_file='last_wfn', return_wfn=True)
properties('b3lyp','MBIS_CHARGES', wfn=wfn)
wfn.to_file('last_wfn')
--------------------------------------------------------------------------

    Molecular point group: c2v
  Charge       = -1
  Multiplicity = 1
  Basis Set: CC-PVTZ
    Blend: CC-PVTZ
  Basis Set: (CC-PVTZ AUX)
    Blend: CC-PVTZ-JKFIT
  @DF-UKS Final Energy:   -90.51330774245795
    Total Energy =                        -90.5133077424579540
 Dipole X            :          0.0000000            0.0000000            0.0000000
 Dipole Y            :          0.0000000            0.0000000            0.0000000
 Dipole Z            :         -0.5150603            0.0008437           -0.5142166
 Magnitude           :                                                    0.5142166
    Molecular point group: c2v

    Geometry (in Angstrom), charge = -1, multiplicity = 1:

       Center              X                  Y                   Z               Mass
    ------------   -----------------  -----------------  -----------------  -----------------
         N            0.000000000000     0.000000000000    -0.290489347479    14.003074004430
         C            0.000000000000     0.000000000000     0.338978652521    12.000000000000

  Charge       = -1
  Multiplicity = 1
  Basis Set: CC-PVTZ
    Blend: CC-PVTZ
  Basis Set: (CC-PVTZ AUX)
    Blend: CC-PVTZ-JKFIT

    Orbital Energies [Eh]
    ---------------------

    Alpha Occupied:

       1A1   -13.975841     2A1    -9.866370     3A1    -0.532135
       1B1    -0.256045     1B2    -0.256045     4A1     0.018937
       5A1     0.056820

    Alpha Virtual:

       2B1     0.418184     2B2     0.418184     6A1     0.432826
       7A1     0.541431     3B2     0.598415     3B1     0.598415
       8A1     0.770851     4B1     0.939231     4B2     0.939231
       1A2     0.960318     9A1     0.960318    10A1     1.206620
       5B2     1.431919     5B1     1.431919    11A1     1.517987
       2A2     1.628474    12A1     1.628474     6B2     1.726329
       6B1     1.726329    13A1     1.868155     7B1     2.437697
       7B2     2.437697    14A1     2.582896     8B1     2.992035
       8B2     2.992035    15A1     3.114151     3A2     3.203960
      16A1     3.203960     9B2     3.357111     9B1     3.357111
      17A1     3.444077     4A2     3.462749    18A1     3.462749
      10B2     3.845772    10B1     3.845772    19A1     4.210039
      11B2     4.521373    11B1     4.521373    12B2     4.648476
      12B1     4.648476     5A2     4.866625    20A1     4.866625
      21A1     5.297975    13B1     6.017178    13B2     6.017178
       6A2     6.337666    22A1     6.337667    23A1     6.548722
      24A1     7.272545    14B2     7.548493    14B1     7.548493
      25A1     8.734255    26A1    21.192225

    Beta Occupied:

       1A1   -13.975841     2A1    -9.866370     3A1    -0.532135
       1B1    -0.256045     1B2    -0.256045     4A1     0.018937
       5A1     0.056820

    Beta Virtual:

       2B1     0.418184     2B2     0.418184     6A1     0.432826
       7A1     0.541431     3B2     0.598415     3B1     0.598415
       8A1     0.770851     4B1     0.939231     4B2     0.939231
       1A2     0.960318     9A1     0.960318    10A1     1.206620
       5B2     1.431919     5B1     1.431919    11A1     1.517987
       2A2     1.628474    12A1     1.628474     6B2     1.726329
       6B1     1.726329    13A1     1.868155     7B1     2.437697
       7B2     2.437697    14A1     2.582896     8B1     2.992035
       8B2     2.992035    15A1     3.114151     3A2     3.203960
      16A1     3.203960     9B2     3.357111     9B1     3.357111
      17A1     3.444077     4A2     3.462749    18A1     3.462749
      10B2     3.845772    10B1     3.845772    19A1     4.210039
      11B2     4.521373    11B1     4.521373    12B2     4.648476
      12B1     4.648476     5A2     4.866625    20A1     4.866625
      21A1     5.297975    13B1     6.017178    13B2     6.017178
       6A2     6.337666    22A1     6.337667    23A1     6.548722
      24A1     7.272545    14B2     7.548493    14B1     7.548493
      25A1     8.734255    26A1    21.192225

    Final Occupation by Irrep:
             A1    A2    B1    B2
    DOCC [     5,    0,    1,    1 ]
    SOCC [     0,    0,    0,    0 ]
    NA   [     5,    0,    1,    1 ]
    NB   [     5,    0,    1,    1 ]

  @DF-UKS Final Energy:   -90.51330774860168

   => Energetics <=

    Nuclear Repulsion Energy =             35.3082966062452712
    One-Electron Energy =                -194.1982848048768915
    Two-Electron Energy =                  79.2760407643919933
    DFT Exchange-Correlation Energy =     -10.8993603143620543
    Empirical Dispersion Energy =           0.0000000000000000
    VV10 Nonlocal Energy =                  0.0000000000000000
    Total Energy =                        -90.5133077486016759

  UHF NO Occupations:
  HONO-2 :    3 A1 2.0000000
  HONO-1 :    4 A1 2.0000000
  HONO-0 :    5 A1 2.0000000
  LUNO+0 :    6 A1 0.0000000
  LUNO+1 :    7 A1 0.0000000
  LUNO+2 :    8 A1 0.0000000
  LUNO+3 :    9 A1 0.0000000

Computation Completed

Properties will be evaluated at   0.000000,   0.000000,   0.000000 [a0]

Properties computed using the B3LYP density matrix

 Multipole Moments:

 ------------------------------------------------------------------------------------
     Multipole            Electronic (a.u.)      Nuclear  (a.u.)        Total (a.u.)
 ------------------------------------------------------------------------------------

 L = 1.  Multiply by 2.5417464519 to convert [e a0] to [Debye]
 Dipole X            :          0.0000000            0.0000000            0.0000000
 Dipole Y            :          0.0000000            0.0000000            0.0000000
 Dipole Z            :         -0.5150603            0.0008437           -0.5142166
 Magnitude           :                                                    0.5142166

 L = 2.  Multiply by 1.3450342976 to convert [e a0^2] to [Debye ang]
 Quadrupole XX       :         -8.4943604            0.0000000           -8.4943604
 Quadrupole XY       :          0.0000000            0.0000000            0.0000000
 Quadrupole XZ       :          0.0000000            0.0000000            0.0000000
 Quadrupole YY       :         -8.4943604            0.0000000           -8.4943604
 Quadrupole YZ       :          0.0000000            0.0000000            0.0000000
 Quadrupole ZZ       :        -17.2592156            4.5714186          -12.6877970
 Traceless XX        :          2.9216184           -1.5238062            1.3978122
 Traceless YY        :          2.9216184           -1.5238062            1.3978122
 Traceless ZZ        :         -5.8432368            3.0476124           -2.7956244

 ------------------------------------------------------------------------------------
  ==> Computing MBIS Charges <==

  Electron Count from Grid (Expected Number): 14.00000 (14.00000)
  Difference:  0.00000

  MBIS Charges: (a.u.)
   Center  Symbol  Z      Pop.       Charge
      1       N    7    7.315654   -0.315654
      2       C    6    6.684347   -0.684347

  MBIS Dipoles: [e a0]
   Center  Symbol  Z        X           Y           Z
      1       N    7   -0.000000    0.000000    0.130343
      2       C    6   -0.000000    0.000000   -0.379460

  MBIS Quadrupoles: [e a0^2]
   Center  Symbol  Z      XX        XY        XZ        YY        YZ        ZZ
      1       N    7   -3.3987    0.0000   -0.0000   -3.3987    0.0000   -4.4267
      2       C    6   -5.0957    0.0000   -0.0000   -5.0957    0.0000   -7.2559

  MBIS Octupoles: [e a0^3]
   Center  Symbol  Z      XXX       XXY       XXZ       XYY       XYZ       XZZ       YYY       YYZ       YZZ       ZZZ
      1       N    7   -0.0000   -0.0000    0.3492   -0.0000   -0.0000   -0.0000   -0.0000    0.3492    0.0000    1.4128
      2       C    6   -0.0000   -0.0000   -0.9443   -0.0000    0.0000   -0.0000    0.0000   -0.9443    0.0000   -2.0843

  MBIS Radial Moments:
   Center  Symbol  Z      [a0^2]      [a0^3]      [a0^4]
      1       N    7   11.224038   22.730406   55.840615
      2       C    6   17.447298   47.373134   152.692091

  MBIS Valence Widths: [a0]
   Center  Symbol  Z     Width
      1       N    7    0.402455
      2       C    6    0.538615

*** tstop() called on Mac.lan at Sun Aug 10 17:39:47 2025
Module time:
	user time   =       3.52 seconds =       0.06 minutes
	system time =       3.43 seconds =       0.06 minutes
	total time  =          1 seconds =       0.02 minutes
Total time:
	user time   =      15.38 seconds =       0.26 minutes
	system time =       5.64 seconds =       0.09 minutes
	total time  =          2 seconds =       0.03 minutes

    Psi4 stopped on: Sunday, 10 August 2025 05:39PM
    Psi4 wall time for execution: 0:00:02.03

*** Psi4 exiting successfully. Buy a developer a beer!
