                               Psi4 1.9.1 release

  ==> Input File <==

--------------------------------------------------------------------------
molecule {
-1 2
N           0.000000           0.000000           0.000000
N           0.000000           0.000000           0.890173
}

set {
basis              cc-pvtz
reference          uks
maxiter            500
DAMPING_PERCENTAGE 1
E_CONVERGENCE      1.0E-8
D_CONVERGENCE      1.0E-8
DIIS_MAX_VECS      400
MBIS_MAXITER       8000
guess              read
}

E, wfn = energy('b3lyp', restart_file='last_wfn', return_wfn=True)
properties('b3lyp','MBIS_CHARGES', wfn=wfn)
wfn.to_file('last_wfn')
--------------------------------------------------------------------------

    Molecular point group: d2h
  Charge       = -1
  Multiplicity = 2
  Basis Set: CC-PVTZ
    Blend: CC-PVTZ
  Basis Set: (CC-PVTZ AUX)
    Blend: CC-PVTZ-JKFIT
  @DF-UKS Final Energy:  -109.16856121573744
    Total Energy =                       -109.1685612157374408
 Dipole X            :          0.0000000            0.0000000            0.0000000
 Dipole Y            :          0.0000000            0.0000000            0.0000000
 Dipole Z            :          0.0000000           -0.0000000           -0.0000000
 Magnitude           :                                                    0.0000000
    Molecular point group: d2h

    Geometry (in Angstrom), charge = -1, multiplicity = 2:

       Center              X                  Y                   Z               Mass
    ------------   -----------------  -----------------  -----------------  -----------------
         N            0.000000000000     0.000000000000    -0.445086500000    14.003074004430
         N            0.000000000000     0.000000000000     0.445086500000    14.003074004430

  Charge       = -1
  Multiplicity = 2
  Basis Set: CC-PVTZ
    Blend: CC-PVTZ
  Basis Set: (CC-PVTZ AUX)
    Blend: CC-PVTZ-JKFIT

    Orbital Energies [Eh]
    ---------------------

    Alpha Occupied:

       1Ag   -13.959024     1B1u  -13.946481     2Ag    -0.856242
       1B3u   -0.196990     1B2u   -0.185766     2B1u   -0.146668
       3Ag    -0.089202     1B2g    0.330390

    Alpha Virtual:

       1B3g    0.413147     3B1u    0.562704     2B2u    0.649631
       2B3u    0.649998     4Ag     0.662634     5Ag     0.832323
       2B2g    0.850936     2B3g    0.870829     4B1u    1.095599
       1B1g    1.168743     6Ag     1.169820     5B1u    1.524625
       3B3u    1.572046     3B2u    1.574964     1Au     1.667002
       6B1u    1.668837     7Ag     1.931190     3B2g    2.008586
       3B3g    2.014967     7B1u    2.855455     4B3u    3.030033
       4B2u    3.030648     8Ag     3.464212     4B2g    3.660419
       4B3g    3.665364     8B1u    3.721985     5B3u    3.867150
       5B2u    3.867231     2B1g    3.916885     9Ag     3.917702
       6B3u    4.211500     6B2u    4.212608    10Ag     4.522218
       5B2g    4.627222     5B3g    4.627355     6B2g    4.664390
       6B3g    4.667877     3B1g    4.785757    11Ag     4.787417
       2Au     4.825721     9B1u    4.827609    12Ag     5.178364
      10B1u    5.470586     7B2u    5.696007     7B3u    5.697679
       3Au     5.836526    11B1u    5.837563    12B1u    6.936844
       7B2g    7.703645     7B3g    7.704794    13Ag     8.526577
      13B1u   24.106265

    Beta Occupied:

       1Ag   -13.952083     1B1u  -13.939429     2Ag    -0.845891
       1B2u   -0.179514     1B3u   -0.150279     2B1u   -0.116850
       3Ag    -0.070818

    Beta Virtual:

       1B3g    0.423041     1B2g    0.449424     3B1u    0.569750
       2B2u    0.653331     4Ag     0.669097     2B3u    0.672500
       5Ag     0.842876     2B3g    0.878794     2B2g    0.900675
       4B1u    1.115351     1B1g    1.184277     6Ag     1.184601
       5B1u    1.539044     3B2u    1.578075     3B3u    1.603611
       1Au     1.698218     6B1u    1.698805     7Ag     1.936900
       3B3g    2.019476     3B2g    2.040660     7B1u    2.865633
       4B2u    3.035818     4B3u    3.061083     8Ag     3.472648
       4B3g    3.672385     4B2g    3.699588     8B1u    3.741493
       5B2u    3.885990     5B3u    3.886002     2B1g    3.928498
       9Ag     3.928867     6B2u    4.215418     6B3u    4.238889
      10Ag     4.532433     5B3g    4.654248     5B2g    4.654541
       6B3g    4.670608     6B2g    4.693904     3B1g    4.816352
      11Ag     4.816695     9B1u    4.859036     2Au     4.859244
      12Ag     5.188012    10B1u    5.482674     7B2u    5.698276
       7B3u    5.723441     3Au     5.856494    11B1u    5.856755
      12B1u    6.945909     7B3g    7.708441     7B2g    7.733475
      13Ag     8.540287    13B1u   24.115388

    Final Occupation by Irrep:
             Ag   B1g   B2g   B3g    Au   B1u   B2u   B3u
    DOCC [     3,    0,    0,    0,    0,    2,    1,    1 ]
    SOCC [     0,    0,    1,    0,    0,    0,    0,    0 ]
    NA   [     3,    0,    1,    0,    0,    2,    1,    1 ]
    NB   [     3,    0,    0,    0,    0,    2,    1,    1 ]

  @DF-UKS Final Energy:  -109.16856122184089

   => Energetics <=

    Nuclear Repulsion Energy =             29.1288135259438405
    One-Electron Energy =                -209.9359449449154340
    Two-Electron Energy =                  83.2664863574163974
    DFT Exchange-Correlation Energy =     -11.6279161602856735
    Empirical Dispersion Energy =           0.0000000000000000
    VV10 Nonlocal Energy =                  0.0000000000000000
    Total Energy =                       -109.1685612218408892

  UHF NO Occupations:
  HONO-2 :    1B3u 1.9998028
  HONO-1 :    2B1u 1.9998012
  HONO-0 :    1B2g 1.0000000
  LUNO+0 :    3B1u 0.0001988
  LUNO+1 :    2B3u 0.0001972
  LUNO+2 :    4 Ag 0.0001058
  LUNO+3 :    2B2u 0.0000097

Computation Completed

Properties will be evaluated at   0.000000,   0.000000,   0.000000 [a0]

Properties computed using the B3LYP density matrix

 Multipole Moments:

 ------------------------------------------------------------------------------------
     Multipole            Electronic (a.u.)      Nuclear  (a.u.)        Total (a.u.)
 ------------------------------------------------------------------------------------

 L = 1.  Multiply by 2.5417464519 to convert [e a0] to [Debye]
 Dipole X            :          0.0000000            0.0000000            0.0000000
 Dipole Y            :          0.0000000            0.0000000            0.0000000
 Dipole Z            :          0.0000000           -0.0000000           -0.0000000
 Magnitude           :                                                    0.0000000

 L = 2.  Multiply by 1.3450342976 to convert [e a0^2] to [Debye ang]
 Quadrupole XX       :        -10.1492899            0.0000000          -10.1492899
 Quadrupole XY       :          0.0000000            0.0000000            0.0000000
 Quadrupole XZ       :          0.0000000            0.0000000            0.0000000
 Quadrupole YY       :         -8.5109971            0.0000000           -8.5109971
 Quadrupole YZ       :          0.0000000            0.0000000            0.0000000
 Quadrupole ZZ       :        -22.5442485            9.9040908          -12.6401577
 Traceless XX        :          3.5855553           -3.3013636            0.2841917
 Traceless YY        :          5.2238481           -3.3013636            1.9224845
 Traceless ZZ        :         -8.8094033            6.6027272           -2.2066761

 ------------------------------------------------------------------------------------
  ==> Computing MBIS Charges <==

  Electron Count from Grid (Expected Number): 15.00000 (15.00000)
  Difference: -0.00000

  MBIS Charges: (a.u.)
   Center  Symbol  Z      Pop.       Charge
      1       N    7    7.500000   -0.500000
      2       N    7    7.500000   -0.500000

  MBIS Dipoles: [e a0]
   Center  Symbol  Z        X           Y           Z
      1       N    7    0.000000   -0.000000    0.293732
      2       N    7   -0.000000    0.000000   -0.293732

  MBIS Quadrupoles: [e a0^2]
   Center  Symbol  Z      XX        XY        XZ        YY        YZ        ZZ
      1       N    7   -5.0746   -0.0000   -0.0000   -4.2555    0.0000   -5.4723
      2       N    7   -5.0746   -0.0000   -0.0000   -4.2555   -0.0000   -5.4723

  MBIS Octupoles: [e a0^3]
   Center  Symbol  Z      XXX       XXY       XXZ       XYY       XYZ       XZZ       YYY       YYZ       YZZ       ZZZ
      1       N    7   -0.0000    0.0000    0.9333   -0.0000    0.0000   -0.0000    0.0000    0.4404    0.0000    0.8225
      2       N    7    0.0000    0.0000   -0.9333   -0.0000   -0.0000   -0.0000    0.0000   -0.4404   -0.0000   -0.8225

  MBIS Radial Moments:
   Center  Symbol  Z      [a0^2]      [a0^3]      [a0^4]
      1       N    7   14.802394   33.815148   92.453657
      2       N    7   14.802394   33.815148   92.453657

  MBIS Valence Widths: [a0]
   Center  Symbol  Z     Width
      1       N    7    0.459154
      2       N    7    0.459154

*** tstop() called on Mac.lan at Sun Aug 10 17:32:34 2025
Module time:
	user time   =       3.79 seconds =       0.06 minutes
	system time =       2.19 seconds =       0.04 minutes
	total time  =          1 seconds =       0.02 minutes
Total time:
	user time   =      14.29 seconds =       0.24 minutes
	system time =       4.78 seconds =       0.08 minutes
	total time  =          2 seconds =       0.03 minutes

    Psi4 stopped on: Sunday, 10 August 2025 05:32PM
    Psi4 wall time for execution: 0:00:01.86

*** Psi4 exiting successfully. Buy a developer a beer!
