                               Psi4 1.9.1 release

  ==> Input File <==

--------------------------------------------------------------------------
molecule {
-1 2
O           0.000000           0.000000           0.000000
C           0.000000           0.000000           1.202587
}

set {
basis              cc-pvtz
reference          uks
maxiter            500
DAMPING_PERCENTAGE 1
E_CONVERGENCE      1.0E-8
D_CONVERGENCE      1.0E-8
DIIS_MAX_VECS      400
MBIS_MAXITER       8000
guess              read
}

E, wfn = energy('b3lyp', restart_file='last_wfn', return_wfn=True)
properties('b3lyp','MBIS_CHARGES', wfn=wfn)
wfn.to_file('last_wfn')
--------------------------------------------------------------------------

    Molecular point group: c2v
  Charge       = -1
  Multiplicity = 2
  Basis Set: CC-PVTZ
    Blend: CC-PVTZ
  Basis Set: (CC-PVTZ AUX)
    Blend: CC-PVTZ-JKFIT
  @DF-UKS Final Energy:  -113.28605308229980
    Total Energy =                       -113.2860530822998015
 Dipole X            :          0.0000000            0.0000000            0.0000000
 Dipole Y            :          0.0000000            0.0000000            0.0000000
 Dipole Z            :         -0.7892696           -0.0024769           -0.7917466
 Magnitude           :                                                    0.7917466
    Molecular point group: c2v

    Geometry (in Angstrom), charge = -1, multiplicity = 2:

       Center              X                  Y                   Z               Mass
    ------------   -----------------  -----------------  -----------------  -----------------
         O            0.000000000000     0.000000000000    -0.515488051888    15.994914619570
         C            0.000000000000     0.000000000000     0.687098948112    12.000000000000

  Charge       = -1
  Multiplicity = 2
  Basis Set: CC-PVTZ
    Blend: CC-PVTZ
  Basis Set: (CC-PVTZ AUX)
    Blend: CC-PVTZ-JKFIT

    Orbital Energies [Eh]
    ---------------------

    Alpha Occupied:

       1A1   -18.858818     2A1    -9.914512     3A1    -0.771697
       4A1    -0.243607     1B1    -0.131241     1B2    -0.114362
       5A1    -0.053040     2B1     0.179424

    Alpha Virtual:

       2B2     0.264769     6A1     0.406084     3B1     0.552962
       3B2     0.566785     7A1     0.574435     8A1     0.814161
       9A1     0.841961     4B1     0.889859     4B2     0.892936
       1A2     0.939809    10A1     0.942418     5B1     1.138751
       5B2     1.140756    11A1     1.403004    12A1     1.556106
       2A2     1.806452    13A1     1.807223     6B1     2.146346
       6B2     2.152111    14A1     2.275954     7B1     2.328293
       7B2     2.334700    15A1     2.673596     8B1     2.971183
       8B2     2.971762     3A2     3.115240    16A1     3.117026
       4A2     3.263269    17A1     3.267694     9B1     3.290797
       9B2     3.297040    18A1     3.450473    10B1     3.511472
      10B2     3.514640    19A1     3.620852    11B1     4.314469
      11B2     4.315043    20A1     4.536955    12B1     5.409729
      12B2     5.409773     5A2     5.725142    21A1     5.725699
      22A1     6.276258    13B2     6.377472    13B1     6.378164
       6A2     6.551887    23A1     6.552956    24A1     6.869223
      14B1     7.053690    14B2     7.054710    25A1     7.269358
      26A1    11.468243

    Beta Occupied:

       1A1   -18.850853     2A1    -9.905196     3A1    -0.756653
       4A1    -0.222555     1B2    -0.108137     1B1    -0.082051
       5A1    -0.028490

    Beta Virtual:

       2B2     0.275131     2B1     0.305075     6A1     0.409774
       3B2     0.573506     7A1     0.589529     3B1     0.597318
       8A1     0.820218     9A1     0.857675     4B2     0.895455
       4B1     0.909571     1A2     0.967764    10A1     0.968666
       5B2     1.142566     5B1     1.166883    11A1     1.410530
      12A1     1.566538     2A2     1.821050    13A1     1.821204
       6B2     2.155396     6B1     2.177149    14A1     2.290067
       7B2     2.341953     7B1     2.371093    15A1     2.683669
       8B2     3.008199     8B1     3.008287     3A2     3.136678
      16A1     3.136720     9B2     3.299433    17A1     3.309441
       4A2     3.310573     9B1     3.327811    18A1     3.463958
      10B2     3.518278    10B1     3.543295    19A1     3.634017
      11B2     4.319108    11B1     4.342918    20A1     4.547548
      12B2     5.426985    12B1     5.426989    21A1     5.737859
       5A2     5.737919    22A1     6.284405    13B2     6.380282
      13B1     6.401630    23A1     6.579660     6A2     6.579755
      24A1     6.881983    14B2     7.057417    14B1     7.078035
      25A1     7.278895    26A1    11.481650

    Final Occupation by Irrep:
             A1    A2    B1    B2
    DOCC [     5,    0,    1,    1 ]
    SOCC [     0,    0,    1,    0 ]
    NA   [     5,    0,    2,    1 ]
    NB   [     5,    0,    1,    1 ]

  @DF-UKS Final Energy:  -113.28605307805475

   => Energetics <=

    Nuclear Repulsion Energy =             21.1215538769003892
    One-Electron Energy =                -200.7159929380554786
    Two-Electron Energy =                  77.7626632190703617
    DFT Exchange-Correlation Energy =     -11.4542772359700145
    Empirical Dispersion Energy =           0.0000000000000000
    VV10 Nonlocal Energy =                  0.0000000000000000
    Total Energy =                       -113.2860530780547492

  UHF NO Occupations:
  HONO-2 :    1 B1 1.9994014
  HONO-1 :    5 A1 1.9993118
  HONO-0 :    2 B1 1.0000000
  LUNO+0 :    6 A1 0.0006882
  LUNO+1 :    3 B1 0.0005986
  LUNO+2 :    7 A1 0.0000559
  LUNO+3 :    2 B2 0.0000373

Computation Completed

Properties will be evaluated at   0.000000,   0.000000,   0.000000 [a0]

Properties computed using the B3LYP density matrix

 Multipole Moments:

 ------------------------------------------------------------------------------------
     Multipole            Electronic (a.u.)      Nuclear  (a.u.)        Total (a.u.)
 ------------------------------------------------------------------------------------

 L = 1.  Multiply by 2.5417464519 to convert [e a0] to [Debye]
 Dipole X            :          0.0000000            0.0000000            0.0000000
 Dipole Y            :          0.0000000            0.0000000            0.0000000
 Dipole Z            :         -0.7892696           -0.0024769           -0.7917466
 Magnitude           :                                                    0.7917466

 L = 2.  Multiply by 1.3450342976 to convert [e a0^2] to [Debye ang]
 Quadrupole XX       :        -11.3442378            0.0000000          -11.3442378
 Quadrupole XY       :          0.0000000            0.0000000            0.0000000
 Quadrupole XZ       :          0.0000000            0.0000000            0.0000000
 Quadrupole YY       :         -9.5640320            0.0000000           -9.5640320
 Quadrupole YZ       :          0.0000000            0.0000000            0.0000000
 Quadrupole ZZ       :        -31.3689361           17.7069580          -13.6619782
 Traceless XX        :          6.0814975           -5.9023193            0.1791782
 Traceless YY        :          7.8617033           -5.9023193            1.9593840
 Traceless ZZ        :        -13.9432008           11.8046386           -2.1385622

 ------------------------------------------------------------------------------------
  ==> Computing MBIS Charges <==

  Electron Count from Grid (Expected Number): 15.00000 (15.00000)
  Difference:  0.00000

  MBIS Charges: (a.u.)
   Center  Symbol  Z      Pop.       Charge
      1       O    8    8.336463   -0.336463
      2       C    6    6.663537   -0.663537

  MBIS Dipoles: [e a0]
   Center  Symbol  Z        X           Y           Z
      1       O    8   -0.000000    0.000000    0.108306
      2       C    6   -0.000000    0.000000   -0.366255

  MBIS Quadrupoles: [e a0^2]
   Center  Symbol  Z      XX        XY        XZ        YY        YZ        ZZ
      1       O    8   -4.1185   -0.0000    0.0000   -3.9028    0.0000   -4.2473
      2       C    6   -7.2257    0.0000   -0.0000   -5.6613    0.0000   -6.8146

  MBIS Octupoles: [e a0^3]
   Center  Symbol  Z      XXX       XXY       XXZ       XYY       XYZ       XZZ       YYY       YYZ       YZZ       ZZZ
      1       O    8    0.0000   -0.0000    0.1395   -0.0000    0.0000   -0.0000   -0.0000    0.1785   -0.0000    0.2126
      2       C    6   -0.0000    0.0000   -1.1699    0.0000    0.0000    0.0000    0.0000   -0.3283    0.0000   -0.3365

  MBIS Radial Moments:
   Center  Symbol  Z      [a0^2]      [a0^3]      [a0^4]
      1       O    8   12.268557   23.514998   54.118142
      2       C    6   19.701622   54.613410   177.589824

  MBIS Valence Widths: [a0]
   Center  Symbol  Z     Width
      1       O    8    0.391803
      2       C    6    0.580414

*** tstop() called on Mac.lan at Sun Aug 10 17:43:02 2025
Module time:
	user time   =       3.74 seconds =       0.06 minutes
	system time =       2.56 seconds =       0.04 minutes
	total time  =          1 seconds =       0.02 minutes
Total time:
	user time   =      18.99 seconds =       0.32 minutes
	system time =       4.40 seconds =       0.07 minutes
	total time  =          3 seconds =       0.05 minutes

    Psi4 stopped on: Sunday, 10 August 2025 05:43PM
    Psi4 wall time for execution: 0:00:02.27

*** Psi4 exiting successfully. Buy a developer a beer!
