                               Psi4 1.9.1 release

  ==> Input File <==

--------------------------------------------------------------------------
molecule {
-1 2
C           0.000000           0.000000           0.000000
C           0.000000           0.000000           0.882125
}

set {
basis              cc-pvtz
reference          uks
maxiter            500
DAMPING_PERCENTAGE 1
E_CONVERGENCE      1.0E-8
D_CONVERGENCE      1.0E-8
DIIS_MAX_VECS      400
MBIS_MAXITER       8000
guess              read
}

E, wfn = energy('b3lyp', restart_file='last_wfn', return_wfn=True)
properties('b3lyp','MBIS_CHARGES', wfn=wfn)
wfn.to_file('last_wfn')
--------------------------------------------------------------------------

    Molecular point group: d2h
  Charge       = -1
  Multiplicity = 2
  Basis Set: CC-PVTZ
    Blend: CC-PVTZ
  Basis Set: (CC-PVTZ AUX)
    Blend: CC-PVTZ-JKFIT
  @DF-UKS Final Energy:   -75.60884054013655
    Total Energy =                        -75.6088405401365549
 Dipole X            :          0.0000000            0.0000000            0.0000000
 Dipole Y            :          0.0000000            0.0000000            0.0000000
 Dipole Z            :          0.0000000           -0.0000000           -0.0000000
 Magnitude           :                                                    0.0000000
    Molecular point group: d2h

    Geometry (in Angstrom), charge = -1, multiplicity = 2:

       Center              X                  Y                   Z               Mass
    ------------   -----------------  -----------------  -----------------  -----------------
         C            0.000000000000     0.000000000000    -0.441062500000    12.000000000000
         C            0.000000000000     0.000000000000     0.441062500000    12.000000000000

  Charge       = -1
  Multiplicity = 2
  Basis Set: CC-PVTZ
    Blend: CC-PVTZ
  Basis Set: (CC-PVTZ AUX)
    Blend: CC-PVTZ-JKFIT

    Orbital Energies [Eh]
    ---------------------

    Alpha Occupied:

       1Ag    -9.840671     1B1u   -9.801658     2Ag    -0.502811
       1B3u   -0.080274     1B2u   -0.080274     2B1u   -0.034118
       3Ag    -0.017223

    Alpha Virtual:

       1B2g    0.391273     1B3g    0.391273     3B1u    0.404735
       4Ag     0.482721     2B3u    0.496923     2B2u    0.496923
       5Ag     0.664677     2B2g    0.732043     2B3g    0.732043
       1B1g    0.886017     6Ag     0.886017     4B1u    0.888586
       3B3u    1.191348     3B2u    1.191348     5B1u    1.223844
       1Au     1.241248     6B1u    1.241248     7Ag     1.354010
       3B2g    1.450489     3B3g    1.450489     4B2u    2.123133
       4B3u    2.123133     7B1u    2.480306     8Ag     2.569370
       4B2g    2.739147     4B3g    2.739147     5B2u    2.777084
       5B3u    2.777084     9Ag     2.838165     2B1g    2.838165
       8B1u    2.850660     6B3u    3.062457     6B2u    3.062457
      10Ag     3.213116     2Au     3.285089     9B1u    3.285089
       5B2g    3.367425     5B3g    3.367425     3B1g    3.428064
      11Ag     3.428064     6B2g    3.437684     6B3g    3.437684
      12Ag     3.794611    10B1u    3.968404     7B3u    4.341800
       7B2u    4.341800    11B1u    4.543529     3Au     4.543529
       7B3g    5.765161     7B2g    5.765161    12B1u    5.791990
      13Ag     6.522914    13B1u   19.285152

    Beta Occupied:

       1Ag    -9.828799     1B1u   -9.791279     2Ag    -0.466137
       1B3u   -0.069680     1B2u   -0.069680     2B1u    0.027685

    Beta Virtual:

       3Ag     0.119269     1B2g    0.402268     1B3g    0.402268
       3B1u    0.417256     2B3u    0.502320     2B2u    0.502320
       4Ag     0.503639     5Ag     0.690116     2B2g    0.745994
       2B3g    0.745994     1B1g    0.889001     6Ag     0.889001
       4B1u    0.909634     3B3u    1.214164     3B2u    1.214164
       5B1u    1.247078     1Au     1.249458     6B1u    1.249458
       7Ag     1.388759     3B2g    1.465439     3B3g    1.465439
       4B2u    2.133652     4B3u    2.133652     7B1u    2.538696
       8Ag     2.599208     4B2g    2.749214     4B3g    2.749214
       5B2u    2.778413     5B3u    2.778413     9Ag     2.843512
       2B1g    2.843512     8B1u    2.867318     6B3u    3.108145
       6B2u    3.108145    10Ag     3.267527     2Au     3.305040
       9B1u    3.305040     5B2g    3.405546     5B3g    3.405546
       6B2g    3.442849     6B3g    3.442849     3B1g    3.448169
      11Ag     3.448169    12Ag     3.826821    10B1u    4.008367
       7B3u    4.370629     7B2u    4.370629    11B1u    4.553507
       3Au     4.553507     7B3g    5.794733     7B2g    5.794733
      12B1u    5.838724    13Ag     6.548577    13B1u   19.302661

    Final Occupation by Irrep:
             Ag   B1g   B2g   B3g    Au   B1u   B2u   B3u
    DOCC [     2,    0,    0,    0,    0,    2,    1,    1 ]
    SOCC [     1,    0,    0,    0,    0,    0,    0,    0 ]
    NA   [     3,    0,    0,    0,    0,    2,    1,    1 ]
    NB   [     2,    0,    0,    0,    0,    2,    1,    1 ]

  @DF-UKS Final Energy:   -75.60884054209043

   => Energetics <=

    Nuclear Repulsion Energy =             21.5960091643701375
    One-Electron Energy =                -147.2584700871911423
    Two-Electron Energy =                  59.2184294389785038
    DFT Exchange-Correlation Energy =      -9.1648090582479380
    Empirical Dispersion Energy =           0.0000000000000000
    VV10 Nonlocal Energy =                  0.0000000000000000
    Total Energy =                        -75.6088405420904337

  UHF NO Occupations:
  HONO-2 :    2 Ag 1.9997167
  HONO-1 :    2B1u 1.9983470
  HONO-0 :    3 Ag 1.0000000
  LUNO+0 :    3B1u 0.0016530
  LUNO+1 :    4 Ag 0.0002833
  LUNO+2 :    2B2u 0.0000572
  LUNO+3 :    2B3u 0.0000572

Computation Completed

Properties will be evaluated at   0.000000,   0.000000,   0.000000 [a0]

Properties computed using the B3LYP density matrix

 Multipole Moments:

 ------------------------------------------------------------------------------------
     Multipole            Electronic (a.u.)      Nuclear  (a.u.)        Total (a.u.)
 ------------------------------------------------------------------------------------

 L = 1.  Multiply by 2.5417464519 to convert [e a0] to [Debye]
 Dipole X            :          0.0000000            0.0000000            0.0000000
 Dipole Y            :          0.0000000            0.0000000            0.0000000
 Dipole Z            :          0.0000000           -0.0000000           -0.0000000
 Magnitude           :                                                    0.0000000

 L = 2.  Multiply by 1.3450342976 to convert [e a0^2] to [Debye ang]
 Quadrupole XX       :        -10.0392499            0.0000000          -10.0392499
 Quadrupole XY       :          0.0000000            0.0000000            0.0000000
 Quadrupole XZ       :          0.0000000            0.0000000            0.0000000
 Quadrupole YY       :        -10.0392499            0.0000000          -10.0392499
 Quadrupole YZ       :          0.0000000            0.0000000            0.0000000
 Quadrupole ZZ       :        -21.5752273            8.3364135          -13.2388138
 Traceless XX        :          3.8453258           -2.7788045            1.0665213
 Traceless YY        :          3.8453258           -2.7788045            1.0665213
 Traceless ZZ        :         -7.6906516            5.5576090           -2.1330426

 ------------------------------------------------------------------------------------
  ==> Computing MBIS Charges <==

  Electron Count from Grid (Expected Number): 13.00000 (13.00000)
  Difference:  0.00000

  MBIS Charges: (a.u.)
   Center  Symbol  Z      Pop.       Charge
      1       C    6    6.500000   -0.500000
      2       C    6    6.500000   -0.500000

  MBIS Dipoles: [e a0]
   Center  Symbol  Z        X           Y           Z
      1       C    6   -0.000000    0.000000    0.085116
      2       C    6   -0.000000    0.000000   -0.085116

  MBIS Quadrupoles: [e a0^2]
   Center  Symbol  Z      XX        XY        XZ        YY        YZ        ZZ
      1       C    6   -5.0196    0.0000   -0.0000   -5.0196   -0.0000   -6.1302
      2       C    6   -5.0196    0.0000    0.0000   -5.0196    0.0000   -6.1302

  MBIS Octupoles: [e a0^3]
   Center  Symbol  Z      XXX       XXY       XXZ       XYY       XYZ       XZZ       YYY       YYZ       YZZ       ZZZ
      1       C    6   -0.0000   -0.0000    0.4634   -0.0000    0.0000   -0.0000    0.0000    0.4634    0.0000    1.8619
      2       C    6   -0.0000   -0.0000   -0.4634   -0.0000   -0.0000   -0.0000    0.0000   -0.4634    0.0000   -1.8619

  MBIS Radial Moments:
   Center  Symbol  Z      [a0^2]      [a0^3]      [a0^4]
      1       C    6   16.169419   42.372719   133.506751
      2       C    6   16.169419   42.372719   133.506751

  MBIS Valence Widths: [a0]
   Center  Symbol  Z     Width
      1       C    6    0.527964
      2       C    6    0.527964

*** tstop() called on Mac.lan at Sun Aug 10 17:29:53 2025
Module time:
	user time   =       3.30 seconds =       0.05 minutes
	system time =       2.65 seconds =       0.04 minutes
	total time  =          0 seconds =       0.00 minutes
Total time:
	user time   =      15.48 seconds =       0.26 minutes
	system time =       5.36 seconds =       0.09 minutes
	total time  =          2 seconds =       0.03 minutes

    Psi4 stopped on: Sunday, 10 August 2025 05:29PM
    Psi4 wall time for execution: 0:00:02.02

*** Psi4 exiting successfully. Buy a developer a beer!
