                               Psi4 1.9.1 release

  ==> Input File <==

--------------------------------------------------------------------------
molecule {
-1 3
C           0.000000           0.000000           0.000000
H           0.000000           0.000000           0.646143
}

set {
basis              cc-pvtz
reference          uks
maxiter            500
DAMPING_PERCENTAGE 1
E_CONVERGENCE      1.0E-8
D_CONVERGENCE      1.0E-8
DIIS_MAX_VECS      400
MBIS_MAXITER       8000
guess              read
}

E, wfn = energy('b3lyp', restart_file='last_wfn', return_wfn=True)
properties('b3lyp','MBIS_CHARGES', wfn=wfn)
wfn.to_file('last_wfn')
--------------------------------------------------------------------------

    Molecular point group: c2v
  Charge       = -1
  Multiplicity = 3
  Basis Set: CC-PVTZ
    Blend: CC-PVTZ
  Basis Set: (CC-PVTZ AUX)
    Blend: CC-PVTZ-JKFIT
  @DF-UKS Final Energy:   -38.17706695776857
    Total Energy =                        -38.1770669577685666
 Dipole X            :          0.0000000            0.0000000            0.0000000
 Dipole Y            :          0.0000000            0.0000000            0.0000000
 Dipole Z            :          0.4079708            0.5588076            0.9667784
 Magnitude           :                                                    0.9667784
    Molecular point group: c2v

    Geometry (in Angstrom), charge = -1, multiplicity = 3:

       Center              X                  Y                   Z               Mass
    ------------   -----------------  -----------------  -----------------  -----------------
         C            0.000000000000     0.000000000000    -0.050062104017    12.000000000000
         H            0.000000000000     0.000000000000     0.596080895983     1.007825032230

  Charge       = -1
  Multiplicity = 3
  Basis Set: CC-PVTZ
    Blend: CC-PVTZ
  Basis Set: (CC-PVTZ AUX)
    Blend: CC-PVTZ-JKFIT

    Orbital Energies [Eh]
    ---------------------

    Alpha Occupied:

       1A1    -9.822250     2A1    -0.421400     3A1     0.023285
       1B2     0.093332     1B1     0.093332

    Alpha Virtual:

       4A1     0.297053     5A1     0.536918     2B1     0.574557
       2B2     0.574557     6A1     0.699503     3B2     0.965002
       3B1     0.965002     7A1     0.972164     1A2     0.972164
       8A1     0.982686     9A1     1.330175     4B1     1.414331
       4B2     1.414331    10A1     2.175198     5B2     2.246158
       5B1     2.246158    11A1     2.447646    12A1     2.725105
      13A1     2.980904     2A2     2.980904     6B2     3.006862
       6B1     3.006862     7B2     3.111533     7B1     3.111533
      14A1     3.227136     3A2     3.227136     8B1     3.420202
       8B2     3.420202    15A1     3.449231    16A1     4.373017
      17A1     4.559616     4A2     4.559616     9B2     4.574270
       9B1     4.574270    18A1     6.084580    10B2     6.370016
      10B1     6.370016    19A1     7.646068    20A1    16.135182

    Beta Occupied:

       1A1    -9.799289     2A1    -0.356471     3A1     0.068317

    Beta Virtual:

       1B1     0.249261     1B2     0.249261     4A1     0.303111
       5A1     0.552934     2B1     0.643613     2B2     0.643613
       6A1     0.737198     3B2     1.003845     3B1     1.003845
       7A1     1.006774     1A2     1.048657     8A1     1.048657
       9A1     1.346714     4B1     1.434094     4B2     1.434094
      10A1     2.215102     5B2     2.322351     5B1     2.322351
      11A1     2.466687    12A1     2.785984     2A2     3.039741
      13A1     3.039741     6B2     3.101763     6B1     3.101763
       7B2     3.158828     7B1     3.158828     3A2     3.331836
      14A1     3.331837     8B1     3.457308     8B2     3.457308
      15A1     3.479730    16A1     4.395304     9B2     4.599699
       9B1     4.599699    17A1     4.603038     4A2     4.603038
      18A1     6.111458    10B2     6.403944    10B1     6.403944
      19A1     7.655308    20A1    16.162108

    Final Occupation by Irrep:
             A1    A2    B1    B2
    DOCC [     3,    0,    0,    0 ]
    SOCC [     0,    0,    1,    1 ]
    NA   [     3,    0,    1,    1 ]
    NB   [     3,    0,    0,    0 ]

  @DF-UKS Final Energy:   -38.17706695780120

   => Energetics <=

    Nuclear Repulsion Energy =              4.9138708676252776
    One-Electron Energy =                 -62.4852542275477774
    Two-Electron Energy =                  24.3579728535273468
    DFT Exchange-Correlation Energy =      -4.9636564514060471
    Empirical Dispersion Energy =           0.0000000000000000
    VV10 Nonlocal Energy =                  0.0000000000000000
    Total Energy =                        -38.1770669578011947

  UHF NO Occupations:
  HONO-2 :    3 A1 1.9976036
  HONO-1 :    1 B2 1.0000000
  HONO-0 :    1 B1 1.0000000
  LUNO+0 :    4 A1 0.0023964
  LUNO+1 :    5 A1 0.0001784
  LUNO+2 :    6 A1 0.0000011
  LUNO+3 :    2 B1 0.0000000

Computation Completed

Properties will be evaluated at   0.000000,   0.000000,   0.000000 [a0]

Properties computed using the B3LYP density matrix

 Multipole Moments:

 ------------------------------------------------------------------------------------
     Multipole            Electronic (a.u.)      Nuclear  (a.u.)        Total (a.u.)
 ------------------------------------------------------------------------------------

 L = 1.  Multiply by 2.5417464519 to convert [e a0] to [Debye]
 Dipole X            :          0.0000000            0.0000000            0.0000000
 Dipole Y            :          0.0000000            0.0000000            0.0000000
 Dipole Z            :          0.4079708            0.5588076            0.9667784
 Magnitude           :                                                    0.9667784

 L = 2.  Multiply by 1.3450342976 to convert [e a0^2] to [Debye ang]
 Quadrupole XX       :         -7.6760902            0.0000000           -7.6760902
 Quadrupole XY       :          0.0000000            0.0000000            0.0000000
 Quadrupole XZ       :          0.0000000            0.0000000            0.0000000
 Quadrupole YY       :         -7.6760902            0.0000000           -7.6760902
 Quadrupole YZ       :          0.0000000            0.0000000            0.0000000
 Quadrupole ZZ       :         -9.0010709            1.3225429           -7.6785280
 Traceless XX        :          0.4416602           -0.4408476            0.0008126
 Traceless YY        :          0.4416602           -0.4408476            0.0008126
 Traceless ZZ        :         -0.8833205            0.8816952           -0.0016252

 ------------------------------------------------------------------------------------
  ==> Computing MBIS Charges <==

  Electron Count from Grid (Expected Number):  8.00000 ( 8.00000)
  Difference: -0.00000

  MBIS Charges: (a.u.)
   Center  Symbol  Z      Pop.       Charge
      1       C    6    7.185724   -1.185724
      2       H    1    0.814276    0.185724

  MBIS Dipoles: [e a0]
   Center  Symbol  Z        X           Y           Z
      1       C    6   -0.000000    0.000000    0.622169
      2       H    1   -0.000000   -0.000000    0.023231

  MBIS Quadrupoles: [e a0^2]
   Center  Symbol  Z      XX        XY        XZ        YY        YZ        ZZ
      1       C    6   -7.4474   -0.0000    0.0000   -7.4474    0.0000   -7.6154
      2       H    1   -0.2287    0.0000    0.0000   -0.2287    0.0000   -0.2228

  MBIS Octupoles: [e a0^3]
   Center  Symbol  Z      XXX       XXY       XXZ       XYY       XYZ       XZZ       YYY       YYZ       YZZ       ZZZ
      1       C    6   -0.0000    0.0000    1.4928   -0.0000   -0.0000   -0.0000    0.0000    1.4928   -0.0000    4.2399
      2       H    1   -0.0000    0.0000    0.0063   -0.0000   -0.0000   -0.0000   -0.0000    0.0063    0.0000    0.0144

  MBIS Radial Moments:
   Center  Symbol  Z      [a0^2]      [a0^3]      [a0^4]
      1       C    6   22.510082   63.461505   208.966993
      2       H    1    0.680286    0.878605    1.365182

  MBIS Valence Widths: [a0]
   Center  Symbol  Z     Width
      1       C    6    0.590195
      2       H    1    0.267423

*** tstop() called on Mac.lan at Sun Aug 10 17:35:20 2025
Module time:
	user time   =       2.70 seconds =       0.05 minutes
	system time =       2.81 seconds =       0.05 minutes
	total time  =          0 seconds =       0.00 minutes
Total time:
	user time   =      13.34 seconds =       0.22 minutes
	system time =       4.89 seconds =       0.08 minutes
	total time  =          2 seconds =       0.03 minutes

    Psi4 stopped on: Sunday, 10 August 2025 05:35PM
    Psi4 wall time for execution: 0:00:01.77

*** Psi4 exiting successfully. Buy a developer a beer!
