                               Psi4 1.9.1 release

  ==> Input File <==

--------------------------------------------------------------------------
molecule {
-1 2
C           0.000000           0.000000           0.000000
C           0.000000           0.000000           1.707835
}

set {
basis              cc-pvtz
reference          uks
maxiter            500
DAMPING_PERCENTAGE 1
E_CONVERGENCE      1.0E-8
D_CONVERGENCE      1.0E-8
DIIS_MAX_VECS      400
MBIS_MAXITER       8000
guess              read
}

E, wfn = energy('b3lyp', restart_file='last_wfn', return_wfn=True)
properties('b3lyp','MBIS_CHARGES', wfn=wfn)
wfn.to_file('last_wfn')
--------------------------------------------------------------------------

    Molecular point group: d2h
  Charge       = -1
  Multiplicity = 2
  Basis Set: CC-PVTZ
    Blend: CC-PVTZ
  Basis Set: (CC-PVTZ AUX)
    Blend: CC-PVTZ-JKFIT
  @DF-UKS Final Energy:   -75.93453022185811
    Total Energy =                        -75.9345302218581111
 Dipole X            :          0.0000000            0.0000000            0.0000000
 Dipole Y            :          0.0000000            0.0000000            0.0000000
 Dipole Z            :          0.0000000           -0.0000000           -0.0000000
 Magnitude           :                                                    0.0000000
    Molecular point group: d2h

    Geometry (in Angstrom), charge = -1, multiplicity = 2:

       Center              X                  Y                   Z               Mass
    ------------   -----------------  -----------------  -----------------  -----------------
         C            0.000000000000     0.000000000000    -0.853917500000    12.000000000000
         C            0.000000000000     0.000000000000     0.853917500000    12.000000000000

  Charge       = -1
  Multiplicity = 2
  Basis Set: CC-PVTZ
    Blend: CC-PVTZ
  Basis Set: (CC-PVTZ AUX)
    Blend: CC-PVTZ-JKFIT

    Orbital Energies [Eh]
    ---------------------

    Alpha Occupied:

       1Ag   -10.004513     1B1u  -10.004347     2Ag    -0.384763
       2B1u   -0.197806     3Ag    -0.042194     1B3u    0.016185
       1B2u    0.016185

    Alpha Virtual:

       1B3g    0.190166     1B2g    0.190166     3B1u    0.342476
       4Ag     0.518081     4B1u    0.520484     2B3u    0.541234
       2B2u    0.541234     2B3g    0.591892     2B2g    0.591892
       5Ag     0.608372     1B1g    0.863993     6Ag     0.863993
       5B1u    0.877338     3B2u    0.901408     3B3u    0.901408
       1Au     1.056970     6B1u    1.056970     7Ag     1.314137
       3B2g    1.321274     3B3g    1.321274     7B1u    1.347684
       4B3u    2.171739     4B2u    2.171739     8Ag     2.237070
       4B2g    2.313403     4B3g    2.313403     5B3u    2.704322
       5B2u    2.704322     9Ag     2.724216     2B1g    2.724216
      10Ag     2.748915     8B1u    2.780495     6B3u    2.908868
       6B2u    2.908868     5B2g    3.015436     5B3g    3.015436
      11Ag     3.205944     3B1g    3.205951     9B1u    3.209002
       2Au     3.209006    10B1u    3.283805     6B2g    3.333022
       6B3g    3.333022    11B1u    3.360934     3Au     3.360939
       7B3u    3.375142     7B2u    3.375142    12B1u    3.688368
      12Ag     3.815106     7B2g    3.980835     7B3g    3.980835
      13Ag     4.232451    13B1u    6.247811

    Beta Occupied:

       1Ag    -9.997083     1B1u   -9.996995     2Ag    -0.353225
       2B1u   -0.148545     1B3u    0.023338     1B2u    0.023338

    Beta Virtual:

       3Ag     0.088472     1B3g    0.199791     1B2g    0.199791
       3B1u    0.360107     2B3u    0.545072     2B2u    0.545072
       4Ag     0.547733     4B1u    0.575786     2B3g    0.595640
       2B2g    0.595640     5Ag     0.621975     1B1g    0.865410
       6Ag     0.865410     5B1u    0.886646     3B2u    0.926041
       3B3u    0.926041     1Au     1.059259     6B1u    1.059259
       3B2g    1.342342     3B3g    1.342342     7Ag     1.345217
       7B1u    1.384242     4B3u    2.181053     4B2u    2.181053
       8Ag     2.280402     4B2g    2.317254     4B3g    2.317254
       5B3u    2.732972     5B2u    2.732972     9Ag     2.745437
       2B1g    2.745437    10Ag     2.793725     8B1u    2.811321
       6B3u    2.908691     6B2u    2.908691     5B2g    3.014905
       5B3g    3.014905    11Ag     3.207409     3B1g    3.207416
       9B1u    3.209703     2Au     3.209707    10B1u    3.332490
       6B2g    3.369596     6B3g    3.369596    11B1u    3.379857
       3Au     3.379862     7B3u    3.414392     7B2u    3.414392
      12B1u    3.732173    12Ag     3.864982     7B2g    4.013842
       7B3g    4.013842    13Ag     4.250324    13B1u    6.269115

    Final Occupation by Irrep:
             Ag   B1g   B2g   B3g    Au   B1u   B2u   B3u
    DOCC [     2,    0,    0,    0,    0,    2,    1,    1 ]
    SOCC [     1,    0,    0,    0,    0,    0,    0,    0 ]
    NA   [     3,    0,    0,    0,    0,    2,    1,    1 ]
    NB   [     2,    0,    0,    0,    0,    2,    1,    1 ]

  @DF-UKS Final Energy:   -75.93453022198581

   => Energetics <=

    Nuclear Repulsion Energy =             11.1546956141079256
    One-Electron Energy =                -126.9149249254633105
    Two-Electron Energy =                  48.4352756259078490
    DFT Exchange-Correlation Energy =      -8.6095765365382739
    Empirical Dispersion Energy =           0.0000000000000000
    VV10 Nonlocal Energy =                  0.0000000000000000
    Total Energy =                        -75.9345302219858098

  UHF NO Occupations:
  HONO-2 :    2 Ag 1.9995854
  HONO-1 :    2B1u 1.9971348
  HONO-0 :    3 Ag 1.0000000
  LUNO+0 :    3B1u 0.0028652
  LUNO+1 :    4 Ag 0.0004146
  LUNO+2 :    2B3u 0.0001032
  LUNO+3 :    2B2u 0.0001032

Computation Completed

Properties will be evaluated at   0.000000,   0.000000,   0.000000 [a0]

Properties computed using the B3LYP density matrix

 Multipole Moments:

 ------------------------------------------------------------------------------------
     Multipole            Electronic (a.u.)      Nuclear  (a.u.)        Total (a.u.)
 ------------------------------------------------------------------------------------

 L = 1.  Multiply by 2.5417464519 to convert [e a0] to [Debye]
 Dipole X            :          0.0000000            0.0000000            0.0000000
 Dipole Y            :          0.0000000            0.0000000            0.0000000
 Dipole Z            :          0.0000000           -0.0000000           -0.0000000
 Magnitude           :                                                    0.0000000

 L = 2.  Multiply by 1.3450342976 to convert [e a0^2] to [Debye ang]
 Quadrupole XX       :        -12.5771938            0.0000000          -12.5771938
 Quadrupole XY       :          0.0000000            0.0000000            0.0000000
 Quadrupole XZ       :          0.0000000            0.0000000            0.0000000
 Quadrupole YY       :        -12.5771938            0.0000000          -12.5771938
 Quadrupole YZ       :          0.0000000            0.0000000            0.0000000
 Quadrupole ZZ       :        -45.1767732           31.2471785          -13.9295947
 Traceless XX        :         10.8665265          -10.4157262            0.4508003
 Traceless YY        :         10.8665265          -10.4157262            0.4508003
 Traceless ZZ        :        -21.7330529           20.8314523           -0.9016006

 ------------------------------------------------------------------------------------
  ==> Computing MBIS Charges <==

  Electron Count from Grid (Expected Number): 13.00000 (13.00000)
  Difference:  0.00000

  MBIS Charges: (a.u.)
   Center  Symbol  Z      Pop.       Charge
      1       C    6    6.500000   -0.500000
      2       C    6    6.500000   -0.500000

  MBIS Dipoles: [e a0]
   Center  Symbol  Z        X           Y           Z
      1       C    6   -0.000000   -0.000000   -0.144502
      2       C    6   -0.000000    0.000000    0.144502

  MBIS Quadrupoles: [e a0^2]
   Center  Symbol  Z      XX        XY        XZ        YY        YZ        ZZ
      1       C    6   -6.2886    0.0000   -0.0000   -6.2886   -0.0000   -6.1292
      2       C    6   -6.2886    0.0000    0.0000   -6.2886    0.0000   -6.1292

  MBIS Octupoles: [e a0^3]
   Center  Symbol  Z      XXX       XXY       XXZ       XYY       XYZ       XZZ       YYY       YYZ       YZZ       ZZZ
      1       C    6   -0.0000   -0.0000   -0.6113   -0.0000    0.0000   -0.0000    0.0000   -0.6113    0.0000   -1.3842
      2       C    6   -0.0000   -0.0000    0.6113   -0.0000   -0.0000   -0.0000    0.0000    0.6113    0.0000    1.3842

  MBIS Radial Moments:
   Center  Symbol  Z      [a0^2]      [a0^3]      [a0^4]
      1       C    6   18.706382   51.343785   166.313895
      2       C    6   18.706382   51.343785   166.313895

  MBIS Valence Widths: [a0]
   Center  Symbol  Z     Width
      1       C    6    0.575506
      2       C    6    0.575506

*** tstop() called on Mac.lan at Sun Aug 10 17:31:40 2025
Module time:
	user time   =       4.00 seconds =       0.07 minutes
	system time =       2.48 seconds =       0.04 minutes
	total time  =          0 seconds =       0.00 minutes
Total time:
	user time   =      17.98 seconds =       0.30 minutes
	system time =       4.89 seconds =       0.08 minutes
	total time  =          2 seconds =       0.03 minutes

    Psi4 stopped on: Sunday, 10 August 2025 05:31PM
    Psi4 wall time for execution: 0:00:02.23

*** Psi4 exiting successfully. Buy a developer a beer!
