                               Psi4 1.9.1 release

  ==> Input File <==

--------------------------------------------------------------------------
molecule {
-1 2
O           0.000000           0.000000           0.000000
C           0.000000           0.000000           0.542661
}

set {
basis              cc-pvtz
reference          uks
maxiter            500
DAMPING_PERCENTAGE 1
E_CONVERGENCE      1.0E-8
D_CONVERGENCE      1.0E-8
DIIS_MAX_VECS      400
MBIS_MAXITER       8000
guess              read
}

E, wfn = energy('b3lyp', restart_file='last_wfn', return_wfn=True)
properties('b3lyp','MBIS_CHARGES', wfn=wfn)
wfn.to_file('last_wfn')
--------------------------------------------------------------------------

    Molecular point group: c2v
  Charge       = -1
  Multiplicity = 2
  Basis Set: CC-PVTZ
    Blend: CC-PVTZ
  Basis Set: (CC-PVTZ AUX)
    Blend: CC-PVTZ-JKFIT
  @DF-UKS Final Energy:  -109.02781309278819
    Total Energy =                       -109.0278130927881932
 Dipole X            :          0.0000000            0.0000000            0.0000000
 Dipole Y            :          0.0000000            0.0000000            0.0000000
 Dipole Z            :         -1.6944965           -0.0011177           -1.6956142
 Magnitude           :                                                    1.6956142
    Molecular point group: c2v

    Geometry (in Angstrom), charge = -1, multiplicity = 2:

       Center              X                  Y                   Z               Mass
    ------------   -----------------  -----------------  -----------------  -----------------
         O            0.000000000000     0.000000000000    -0.232611247024    15.994914619570
         C            0.000000000000     0.000000000000     0.310049752976    12.000000000000

  Charge       = -1
  Multiplicity = 2
  Basis Set: CC-PVTZ
    Blend: CC-PVTZ
  Basis Set: (CC-PVTZ AUX)
    Blend: CC-PVTZ-JKFIT

    Orbital Energies [Eh]
    ---------------------

    Alpha Occupied:

       1A1   -19.097642     2A1   -10.213705     3A1    -0.856901
       1B2    -0.615257     1B1    -0.613148     4A1    -0.175871
       5A1    -0.023781     2B1     0.299328

    Alpha Virtual:

       2B2     0.359869     6A1     0.371043     7A1     0.517229
       3B2     0.629001     3B1     0.637206     8A1     0.812768
       1A2     0.891897     9A1     0.894490     4B2     0.907878
       4B1     0.909436    10A1     1.160212     5B2     1.489816
       5B1     1.493661    11A1     1.649594     6B2     1.798153
       6B1     1.805040     2A2     1.937640    12A1     1.939294
      13A1     2.073363    14A1     2.510867     7B2     2.812872
       7B1     2.817518     8B1     2.913115     8B2     2.913173
       3A2     3.108423    15A1     3.109081    16A1     3.233333
       9B2     3.393547     9B1     3.399512     4A2     3.688813
      17A1     3.688843    18A1     3.745166    10B2     4.365016
      10B1     4.370470    19A1     4.897111    11B2     5.066692
      11B1     5.071137    12B1     5.749667    12B2     5.749678
       5A2     6.351919    20A1     6.352281    21A1     6.498757
      13B2     7.180751    13B1     7.184394     6A2     7.497287
      22A1     7.497463    23A1     7.693711    14B2     9.142361
      14B1     9.144150    24A1     9.506867    25A1    10.291608
      26A1    21.265459

    Beta Occupied:

       1A1   -19.095073     2A1   -10.214425     3A1    -0.853178
       1B2    -0.614369     1B1    -0.604188     4A1    -0.174338
       5A1    -0.018102

    Beta Virtual:

       2B2     0.373360     6A1     0.385365     2B1     0.399197
       7A1     0.533212     3B2     0.625443     3B1     0.637316
       8A1     0.820545     1A2     0.909009     4B2     0.909645
       9A1     0.910097     4B1     0.926221    10A1     1.166270
       5B2     1.490355     5B1     1.508199    11A1     1.651352
       6B2     1.796846     6B1     1.810659    12A1     1.947819
       2A2     1.947829    13A1     2.076388    14A1     2.513235
       7B2     2.811924     7B1     2.820650     8B2     2.915882
       8B1     2.915898    15A1     3.110339     3A2     3.110579
      16A1     3.233367     9B2     3.391028     9B1     3.403718
      17A1     3.689823     4A2     3.690456    18A1     3.744631
      10B2     4.365003    10B1     4.377310    19A1     4.899134
      11B2     5.066433    11B1     5.076277    12B2     5.752334
      12B1     5.752337    20A1     6.357627     5A2     6.357662
      21A1     6.499917    13B2     7.180800    13B1     7.188052
      22A1     7.500458     6A2     7.500503    23A1     7.695525
      14B2     9.142909    14B1     9.149258    24A1     9.507975
      25A1    10.294554    26A1    21.267517

    Final Occupation by Irrep:
             A1    A2    B1    B2
    DOCC [     5,    0,    1,    1 ]
    SOCC [     0,    0,    1,    0 ]
    NA   [     5,    0,    2,    1 ]
    NB   [     5,    0,    1,    1 ]

  @DF-UKS Final Energy:  -109.02781309279905

   => Energetics <=

    Nuclear Repulsion Energy =             46.8073182192197379
    One-Electron Energy =                -239.8739991181638800
    Two-Electron Energy =                  96.4958831862221587
    DFT Exchange-Correlation Energy =     -12.4570153800770846
    Empirical Dispersion Energy =           0.0000000000000000
    VV10 Nonlocal Energy =                  0.0000000000000000
    Total Energy =                       -109.0278130927990503

  UHF NO Occupations:
  HONO-2 :    1 B1 1.9999883
  HONO-1 :    5 A1 1.9992231
  HONO-0 :    2 B1 1.0000000
  LUNO+0 :    6 A1 0.0007769
  LUNO+1 :    3 B1 0.0000117
  LUNO+2 :    7 A1 0.0000058
  LUNO+3 :    2 B2 0.0000014

Computation Completed

Properties will be evaluated at   0.000000,   0.000000,   0.000000 [a0]

Properties computed using the B3LYP density matrix

 Multipole Moments:

 ------------------------------------------------------------------------------------
     Multipole            Electronic (a.u.)      Nuclear  (a.u.)        Total (a.u.)
 ------------------------------------------------------------------------------------

 L = 1.  Multiply by 2.5417464519 to convert [e a0] to [Debye]
 Dipole X            :          0.0000000            0.0000000            0.0000000
 Dipole Y            :          0.0000000            0.0000000            0.0000000
 Dipole Z            :         -1.6944965           -0.0011177           -1.6956142
 Magnitude           :                                                    1.6956142

 L = 2.  Multiply by 1.3450342976 to convert [e a0^2] to [Debye ang]
 Quadrupole XX       :        -14.4978828            0.0000000          -14.4978828
 Quadrupole XY       :          0.0000000            0.0000000            0.0000000
 Quadrupole XZ       :          0.0000000            0.0000000            0.0000000
 Quadrupole YY       :         -9.0285450            0.0000000           -9.0285450
 Quadrupole YZ       :          0.0000000            0.0000000            0.0000000
 Quadrupole ZZ       :        -15.7532911            3.6055222          -12.1477689
 Traceless XX        :         -1.4046432           -1.2018407           -2.6064839
 Traceless YY        :          4.0646946           -1.2018407            2.8628539
 Traceless ZZ        :         -2.6600514            2.4036814           -0.2563700

 ------------------------------------------------------------------------------------
  ==> Computing MBIS Charges <==

  Electron Count from Grid (Expected Number): 15.00000 (15.00000)
  Difference:  0.00000

  MBIS Charges: (a.u.)
   Center  Symbol  Z      Pop.       Charge
      1       O    8    7.609795    0.390205
      2       C    6    7.390205   -1.390205

  MBIS Dipoles: [e a0]
   Center  Symbol  Z        X           Y           Z
      1       O    8   -0.000000    0.000000   -0.150187
      2       C    6    0.000000   -0.000000   -0.559370

  MBIS Quadrupoles: [e a0^2]
   Center  Symbol  Z      XX        XY        XZ        YY        YZ        ZZ
      1       O    8   -2.1298   -0.0000   -0.0000   -2.0496   -0.0000   -2.4967
      2       C    6   -12.3681    0.0000    0.0000   -6.9790    0.0000   -8.7257

  MBIS Octupoles: [e a0^3]
   Center  Symbol  Z      XXX       XXY       XXZ       XYY       XYZ       XZZ       YYY       YYZ       YZZ       ZZZ
      1       O    8    0.0000    0.0000   -0.0659    0.0000    0.0000   -0.0000   -0.0000   -0.0299    0.0000    0.1777
      2       C    6    0.0000   -0.0000   -3.8692    0.0000    0.0000    0.0000    0.0000   -1.6141    0.0000   -2.4701

  MBIS Radial Moments:
   Center  Symbol  Z      [a0^2]      [a0^3]      [a0^4]
      1       O    8    6.676088    9.667600   16.930428
      2       C    6   28.072819   91.345326   343.631276

  MBIS Valence Widths: [a0]
   Center  Symbol  Z     Width
      1       O    8    0.302230
      2       C    6    0.648818

*** tstop() called on Mac.lan at Sun Aug 10 17:42:37 2025
Module time:
	user time   =       3.85 seconds =       0.06 minutes
	system time =       3.16 seconds =       0.05 minutes
	total time  =          1 seconds =       0.02 minutes
Total time:
	user time   =      17.42 seconds =       0.29 minutes
	system time =       5.58 seconds =       0.09 minutes
	total time  =          2 seconds =       0.03 minutes

    Psi4 stopped on: Sunday, 10 August 2025 05:42PM
    Psi4 wall time for execution: 0:00:02.22

*** Psi4 exiting successfully. Buy a developer a beer!
