                               Psi4 1.9.1 release

  ==> Input File <==

--------------------------------------------------------------------------
molecule {
-1 2
H           0.000000           0.000000           0.000000
H           0.000000           0.000000           1.390496
}

set {
basis              cc-pvtz
reference          uks
maxiter            500
DAMPING_PERCENTAGE 1
E_CONVERGENCE      1.0E-8
D_CONVERGENCE      1.0E-8
DIIS_MAX_VECS      400
MBIS_MAXITER       8000
guess              read
}

E, wfn = energy('b3lyp', restart_file='last_wfn', return_wfn=True)
properties('b3lyp','MBIS_CHARGES', wfn=wfn)
wfn.to_file('last_wfn')
--------------------------------------------------------------------------

    Molecular point group: d2h
  Charge       = -1
  Multiplicity = 2
  Basis Set: CC-PVTZ
    Blend: CC-PVTZ
  Basis Set: (CC-PVTZ AUX)
    Blend: CC-PVTZ-JKFIT
  @DF-UKS Final Energy:    -1.05764151549752
    Total Energy =                         -1.0576415154975209
 Dipole X            :          0.0000000            0.0000000            0.0000000
 Dipole Y            :          0.0000000            0.0000000            0.0000000
 Dipole Z            :          0.0000000            0.0000000            0.0000000
 Magnitude           :                                                    0.0000000
    Molecular point group: d2h

    Geometry (in Angstrom), charge = -1, multiplicity = 2:

       Center              X                  Y                   Z               Mass
    ------------   -----------------  -----------------  -----------------  -----------------
         H            0.000000000000     0.000000000000    -0.695248000000     1.007825032230
         H            0.000000000000     0.000000000000     0.695248000000     1.007825032230

  Charge       = -1
  Multiplicity = 2
  Basis Set: CC-PVTZ
    Blend: CC-PVTZ
  Basis Set: (CC-PVTZ AUX)
    Blend: CC-PVTZ-JKFIT

    Orbital Energies [Eh]
    ---------------------

    Alpha Occupied:

       1Ag    -0.046400     1B1u    0.133215

    Alpha Virtual:

       2Ag     0.489823     2B1u    0.554696     1B2u    0.799608
       1B3u    0.799608     3Ag     0.964963     1B2g    1.066768
       1B3g    1.066768     3B1u    1.462299     4Ag     2.549975
       4B1u    2.695912     5Ag     3.172854     2B2u    3.182757
       2B3u    3.182757     1B1g    3.417454     6Ag     3.417455
       1Au     3.610958     5B1u    3.610959     3B2u    3.897375
       3B3u    3.897375     2B2g    3.901778     2B3g    3.901778
       6B1u    4.068268     3B2g    4.215822     3B3g    4.215822
       7Ag     4.383670     7B1u    5.339957

    Beta Occupied:

       1Ag     0.003694

    Beta Virtual:

       1B1u    0.240940     2Ag     0.511227     2B1u    0.605562
       1B2u    0.821908     1B3u    0.821908     3Ag     1.006326
       1B2g    1.108296     1B3g    1.108296     3B1u    1.506263
       4Ag     2.615482     4B1u    2.757071     5Ag     3.197358
       2B2u    3.216151     2B3u    3.216151     1B1g    3.456564
       6Ag     3.456565     1Au     3.652891     5B1u    3.652891
       2B2g    3.946974     2B3g    3.946974     3B2u    3.952452
       3B3u    3.952452     6B1u    4.125933     3B2g    4.267530
       3B3g    4.267530     7Ag     4.439509     7B1u    5.381089

    Final Occupation by Irrep:
             Ag   B1g   B2g   B3g    Au   B1u   B2u   B3u
    DOCC [     1,    0,    0,    0,    0,    0,    0,    0 ]
    SOCC [     0,    0,    0,    0,    0,    1,    0,    0 ]
    NA   [     1,    0,    0,    0,    0,    1,    0,    0 ]
    NB   [     1,    0,    0,    0,    0,    0,    0,    0 ]

  @DF-UKS Final Energy:    -1.05764152384435

   => Energetics <=

    Nuclear Repulsion Energy =              0.3805672297295355
    One-Electron Energy =                  -2.4789413241203011
    Two-Electron Energy =                   1.7130763943876095
    DFT Exchange-Correlation Energy =      -0.6723438238411892
    Empirical Dispersion Energy =           0.0000000000000000
    VV10 Nonlocal Energy =                  0.0000000000000000
    Total Energy =                         -1.0576415238443453

  UHF NO Occupations:
  HONO-1 :    1 Ag 1.9984532
  HONO-0 :    1B1u 1.0000000
  LUNO+0 :    2 Ag 0.0015468
  LUNO+1 :    3 Ag 0.0000000
  LUNO+2 :    2B1u 0.0000000
  LUNO+3 :    3B1u 0.0000000

Computation Completed

Properties will be evaluated at   0.000000,   0.000000,   0.000000 [a0]

Properties computed using the B3LYP density matrix

 Multipole Moments:

 ------------------------------------------------------------------------------------
     Multipole            Electronic (a.u.)      Nuclear  (a.u.)        Total (a.u.)
 ------------------------------------------------------------------------------------

 L = 1.  Multiply by 2.5417464519 to convert [e a0] to [Debye]
 Dipole X            :          0.0000000            0.0000000            0.0000000
 Dipole Y            :          0.0000000            0.0000000            0.0000000
 Dipole Z            :          0.0000000            0.0000000            0.0000000
 Magnitude           :                                                    0.0000000

 L = 2.  Multiply by 1.3450342976 to convert [e a0^2] to [Debye ang]
 Quadrupole XX       :         -4.3458888            0.0000000           -4.3458888
 Quadrupole XY       :          0.0000000            0.0000000            0.0000000
 Quadrupole XZ       :          0.0000000            0.0000000            0.0000000
 Quadrupole YY       :         -4.3458888            0.0000000           -4.3458888
 Quadrupole YZ       :          0.0000000            0.0000000            0.0000000
 Quadrupole ZZ       :        -11.2376391            3.4522897           -7.7853495
 Traceless XX        :          2.2972501           -1.1507632            1.1464869
 Traceless YY        :          2.2972501           -1.1507632            1.1464869
 Traceless ZZ        :         -4.5945003            2.3015264           -2.2929738

 ------------------------------------------------------------------------------------
  ==> Computing MBIS Charges <==

  Electron Count from Grid (Expected Number):  3.00000 ( 3.00000)
  Difference:  0.00000

  MBIS Charges: (a.u.)
   Center  Symbol  Z      Pop.       Charge
      1       H    1    1.500000   -0.500000
      2       H    1    1.500000   -0.500000

  MBIS Dipoles: [e a0]
   Center  Symbol  Z        X           Y           Z
      1       H    1   -0.000000   -0.000000    0.194495
      2       H    1    0.000000    0.000000   -0.194495

  MBIS Quadrupoles: [e a0^2]
   Center  Symbol  Z      XX        XY        XZ        YY        YZ        ZZ
      1       H    1   -2.1729    0.0000    0.0000   -2.1729    0.0000   -2.5185
      2       H    1   -2.1729   -0.0000    0.0000   -2.1729    0.0000   -2.5185

  MBIS Octupoles: [e a0^3]
   Center  Symbol  Z      XXX       XXY       XXZ       XYY       XYZ       XZZ       YYY       YYZ       YZZ       ZZZ
      1       H    1    0.0000    0.0000    0.4271   -0.0000    0.0000    0.0000   -0.0000    0.4271   -0.0000    0.7234
      2       H    1    0.0000   -0.0000   -0.4271    0.0000   -0.0000   -0.0000    0.0000   -0.4271    0.0000   -0.7234

  MBIS Radial Moments:
   Center  Symbol  Z      [a0^2]      [a0^3]      [a0^4]
      1       H    1    6.864424   20.805570   73.356278
      2       H    1    6.864424   20.805570   73.356278

  MBIS Valence Widths: [a0]
   Center  Symbol  Z     Width
      1       H    1    0.616815
      2       H    1    0.616815

*** tstop() called on Mac.lan at Sun Aug 10 17:26:25 2025
Module time:
	user time   =       0.48 seconds =       0.01 minutes
	system time =       1.49 seconds =       0.02 minutes
	total time  =          0 seconds =       0.00 minutes
Total time:
	user time   =       1.61 seconds =       0.03 minutes
	system time =       3.37 seconds =       0.06 minutes
	total time  =          1 seconds =       0.02 minutes

    Psi4 stopped on: Sunday, 10 August 2025 05:26PM
    Psi4 wall time for execution: 0:00:00.80

*** Psi4 exiting successfully. Buy a developer a beer!
