                               Psi4 1.9.1 release

  ==> Input File <==

--------------------------------------------------------------------------
molecule {
-1 2
O           0.000000           0.000000           0.000000
C           0.000000           0.000000           1.001740
}

set {
basis              cc-pvtz
reference          uks
maxiter            500
DAMPING_PERCENTAGE 1
E_CONVERGENCE      1.0E-8
D_CONVERGENCE      1.0E-8
DIIS_MAX_VECS      400
MBIS_MAXITER       8000
guess              read
}

E, wfn = energy('b3lyp', restart_file='last_wfn', return_wfn=True)
properties('b3lyp','MBIS_CHARGES', wfn=wfn)
wfn.to_file('last_wfn')
--------------------------------------------------------------------------

    Molecular point group: c2v
  Charge       = -1
  Multiplicity = 2
  Basis Set: CC-PVTZ
    Blend: CC-PVTZ
  Basis Set: (CC-PVTZ AUX)
    Blend: CC-PVTZ-JKFIT
  @DF-UKS Final Energy:  -113.17766872400061
    Total Energy =                       -113.1776687240006112
 Dipole X            :          0.0000000            0.0000000            0.0000000
 Dipole Y            :          0.0000000            0.0000000            0.0000000
 Dipole Z            :         -1.1542555           -0.0020632           -1.1563187
 Magnitude           :                                                    1.1563187
    Molecular point group: c2v

    Geometry (in Angstrom), charge = -1, multiplicity = 2:

       Center              X                  Y                   Z               Mass
    ------------   -----------------  -----------------  -----------------  -----------------
         O            0.000000000000     0.000000000000    -0.429395129914    15.994914619570
         C            0.000000000000     0.000000000000     0.572344870086    12.000000000000

  Charge       = -1
  Multiplicity = 2
  Basis Set: CC-PVTZ
    Blend: CC-PVTZ
  Basis Set: (CC-PVTZ AUX)
    Blend: CC-PVTZ-JKFIT

    Orbital Energies [Eh]
    ---------------------

    Alpha Occupied:

       1A1   -18.857299     2A1    -9.876606     3A1    -0.890504
       4A1    -0.255921     1B1    -0.205314     1B2    -0.193339
       5A1    -0.046294     2B1     0.243978

    Alpha Virtual:

       2B2     0.320177     6A1     0.406080     3B1     0.555303
       3B2     0.565775     7A1     0.568023     8A1     0.804431
       4B1     0.871057     4B2     0.875347     1A2     0.934967
       9A1     0.937273    10A1     1.041878     5B1     1.212782
       5B2     1.215596    11A1     1.449771    12A1     1.834250
       2A2     1.842624    13A1     1.843811    14A1     2.217665
       6B1     2.224049     6B2     2.224359     7B1     2.295542
       7B2     2.300663    15A1     2.913702     8B1     2.968731
       8B2     2.968978     3A2     3.211067    16A1     3.212572
       4A2     3.292088    17A1     3.294181     9B1     3.324200
       9B2     3.326484    18A1     3.396589    10B1     3.687088
      10B2     3.691115    19A1     3.900894    11B2     4.517453
      11B1     4.518850    20A1     5.221818    12B1     5.423485
      12B2     5.423526     5A2     6.012861    21A1     6.013422
      22A1     6.510714     6A2     6.574137    23A1     6.575189
      13B1     6.879340    13B2     6.881427    14B2     7.086492
      14B1     7.087732    24A1     7.211217    25A1     8.103915
      26A1    14.383190

    Beta Occupied:

       1A1   -18.849213     2A1    -9.871071     3A1    -0.878387
       4A1    -0.239985     1B2    -0.187515     1B1    -0.162083
       5A1    -0.021273

    Beta Virtual:

       2B2     0.329516     2B1     0.355639     6A1     0.410661
       3B2     0.570771     7A1     0.582937     3B1     0.592208
       8A1     0.810911     4B2     0.878513     4B1     0.893416
       9A1     0.959680     1A2     0.960103    10A1     1.055431
       5B2     1.217890     5B1     1.242160    11A1     1.456363
      12A1     1.844889     2A2     1.858844    13A1     1.859114
       6B2     2.228548    14A1     2.232571     6B1     2.250690
       7B2     2.304196     7B1     2.325448    15A1     2.922207
       8B2     2.995604     8B1     2.995663     3A2     3.232390
      16A1     3.232448    17A1     3.317163     4A2     3.318595
       9B2     3.326998     9B1     3.352024    18A1     3.406949
      10B2     3.695591    10B1     3.718858    19A1     3.909589
      11B2     4.520962    11B1     4.543235    20A1     5.232118
      12B2     5.440771    12B1     5.440775     5A2     6.026777
      21A1     6.026848    22A1     6.516655    23A1     6.601514
       6A2     6.601519    13B2     6.885293    13B1     6.906238
      14B2     7.088877    14B1     7.108868    24A1     7.221344
      25A1     8.114845    26A1    14.394650

    Final Occupation by Irrep:
             A1    A2    B1    B2
    DOCC [     5,    0,    1,    1 ]
    SOCC [     0,    0,    1,    0 ]
    NA   [     5,    0,    2,    1 ]
    NB   [     5,    0,    1,    1 ]

  @DF-UKS Final Energy:  -113.17766872511422

   => Energetics <=

    Nuclear Repulsion Energy =             25.3563860005190946
    One-Electron Energy =                -208.4345292389250801
    Two-Electron Energy =                  81.5091423166002187
    DFT Exchange-Correlation Energy =     -11.6086678033084585
    Empirical Dispersion Energy =           0.0000000000000000
    VV10 Nonlocal Energy =                  0.0000000000000000
    Total Energy =                       -113.1776687251142164

  UHF NO Occupations:
  HONO-2 :    1 B1 1.9997331
  HONO-1 :    5 A1 1.9995454
  HONO-0 :    2 B1 1.0000000
  LUNO+0 :    6 A1 0.0004546
  LUNO+1 :    3 B1 0.0002669
  LUNO+2 :    7 A1 0.0000527
  LUNO+3 :    2 B2 0.0000125

Computation Completed

Properties will be evaluated at   0.000000,   0.000000,   0.000000 [a0]

Properties computed using the B3LYP density matrix

 Multipole Moments:

 ------------------------------------------------------------------------------------
     Multipole            Electronic (a.u.)      Nuclear  (a.u.)        Total (a.u.)
 ------------------------------------------------------------------------------------

 L = 1.  Multiply by 2.5417464519 to convert [e a0] to [Debye]
 Dipole X            :          0.0000000            0.0000000            0.0000000
 Dipole Y            :          0.0000000            0.0000000            0.0000000
 Dipole Z            :         -1.1542555           -0.0020632           -1.1563187
 Magnitude           :                                                    1.1563187

 L = 2.  Multiply by 1.3450342976 to convert [e a0^2] to [Debye ang]
 Quadrupole XX       :        -11.8649684            0.0000000          -11.8649684
 Quadrupole XY       :          0.0000000            0.0000000            0.0000000
 Quadrupole XZ       :          0.0000000            0.0000000            0.0000000
 Quadrupole YY       :         -9.4026649            0.0000000           -9.4026649
 Quadrupole YZ       :          0.0000000            0.0000000            0.0000000
 Quadrupole ZZ       :        -25.6253707           12.2862961          -13.3390746
 Traceless XX        :          3.7660330           -4.0954320           -0.3293991
 Traceless YY        :          6.2283365           -4.0954320            2.1329044
 Traceless ZZ        :         -9.9943694            8.1908641           -1.8035053

 ------------------------------------------------------------------------------------
  ==> Computing MBIS Charges <==

  Electron Count from Grid (Expected Number): 15.00000 (15.00000)
  Difference:  0.00000

  MBIS Charges: (a.u.)
   Center  Symbol  Z      Pop.       Charge
      1       O    8    8.117862   -0.117862
      2       C    6    6.882138   -0.882138

  MBIS Dipoles: [e a0]
   Center  Symbol  Z        X           Y           Z
      1       O    8   -0.000000    0.000000    0.081912
      2       C    6    0.000000    0.000000   -0.379770

  MBIS Quadrupoles: [e a0^2]
   Center  Symbol  Z      XX        XY        XZ        YY        YZ        ZZ
      1       O    8   -3.5739    0.0000   -0.0000   -3.3649   -0.0000   -3.8699
      2       C    6   -8.2910   -0.0000    0.0000   -6.0378    0.0000   -7.4052

  MBIS Octupoles: [e a0^3]
   Center  Symbol  Z      XXX       XXY       XXZ       XYY       XYZ       XZZ       YYY       YYZ       YZZ       ZZZ
      1       O    8   -0.0000   -0.0000    0.1003   -0.0000   -0.0000   -0.0000    0.0000    0.1587    0.0000    0.2833
      2       C    6   -0.0000    0.0000   -1.9336   -0.0000    0.0000   -0.0000    0.0000   -0.5780    0.0000   -0.4883

  MBIS Radial Moments:
   Center  Symbol  Z      [a0^2]      [a0^3]      [a0^4]
      1       O    8   10.808755   19.674880   43.172367
      2       C    6   21.733985   62.550972   210.626420

  MBIS Valence Widths: [a0]
   Center  Symbol  Z     Width
      1       O    8    0.373243
      2       C    6    0.595500

*** tstop() called on Mac.lan at Sun Aug 10 17:41:54 2025
Module time:
	user time   =       4.26 seconds =       0.07 minutes
	system time =       1.83 seconds =       0.03 minutes
	total time  =          1 seconds =       0.02 minutes
Total time:
	user time   =      19.73 seconds =       0.33 minutes
	system time =       4.26 seconds =       0.07 minutes
	total time  =          2 seconds =       0.03 minutes

    Psi4 stopped on: Sunday, 10 August 2025 05:41PM
    Psi4 wall time for execution: 0:00:02.32

*** Psi4 exiting successfully. Buy a developer a beer!
