                               Psi4 1.9.1 release

  ==> Input File <==

--------------------------------------------------------------------------
molecule {
-1 3
C           0.000000           0.000000           0.000000
H           0.000000           0.000000           1.294635
}

set {
basis              cc-pvtz
reference          uks
maxiter            500
DAMPING_PERCENTAGE 1
E_CONVERGENCE      1.0E-8
D_CONVERGENCE      1.0E-8
DIIS_MAX_VECS      400
MBIS_MAXITER       8000
guess              read
}

E, wfn = energy('b3lyp', restart_file='last_wfn', return_wfn=True)
properties('b3lyp','MBIS_CHARGES', wfn=wfn)
wfn.to_file('last_wfn')
--------------------------------------------------------------------------

    Molecular point group: c2v
  Charge       = -1
  Multiplicity = 3
  Basis Set: CC-PVTZ
    Blend: CC-PVTZ
  Basis Set: (CC-PVTZ AUX)
    Blend: CC-PVTZ-JKFIT
  @DF-UKS Final Energy:   -38.52130102139984
    Total Energy =                        -38.5213010213998359
 Dipole X            :          0.0000000            0.0000000            0.0000000
 Dipole Y            :          0.0000000            0.0000000            0.0000000
 Dipole Z            :         -0.9810170            1.1196468            0.1386298
 Magnitude           :                                                    0.1386298
    Molecular point group: c2v

    Geometry (in Angstrom), charge = -1, multiplicity = 3:

       Center              X                  Y                   Z               Mass
    ------------   -----------------  -----------------  -----------------  -----------------
         C            0.000000000000     0.000000000000    -0.100306204717    12.000000000000
         H            0.000000000000     0.000000000000     1.194328795283     1.007825032230

  Charge       = -1
  Multiplicity = 3
  Basis Set: CC-PVTZ
    Blend: CC-PVTZ
  Basis Set: (CC-PVTZ AUX)
    Blend: CC-PVTZ-JKFIT

    Orbital Energies [Eh]
    ---------------------

    Alpha Occupied:

       1A1    -9.898287     2A1    -0.284037     3A1     0.003959
       1B1     0.080018     1B2     0.080018

    Alpha Virtual:

       4A1     0.284235     5A1     0.534896     2B1     0.569304
       2B2     0.569304     6A1     0.613562     7A1     0.713394
       3B2     0.853926     3B1     0.853926     8A1     0.960653
       1A2     0.960653     9A1     1.212916     4B1     1.274648
       4B2     1.274648    10A1     1.526779     5B1     2.267706
       5B2     2.267706    11A1     2.451563    12A1     2.668898
       2A2     2.885951    13A1     2.885951     6B1     2.911782
       6B2     2.911782     7B1     2.985921     7B2     2.985921
      14A1     3.105082     3A2     3.249916    15A1     3.249916
       8B1     3.381479     8B2     3.381479    16A1     3.414474
       4A2     3.727468    17A1     3.727471     9B1     4.039666
       9B2     4.039666    18A1     4.284518    10B1     4.619725
      10B2     4.619725    19A1     4.731504    20A1     6.983864

    Beta Occupied:

       1A1    -9.874366     2A1    -0.208475     3A1     0.033842

    Beta Virtual:

       1B1     0.238321     1B2     0.238321     4A1     0.294823
       5A1     0.547950     6A1     0.631610     2B1     0.640605
       2B2     0.640605     7A1     0.755831     3B2     0.878286
       3B1     0.878286     8A1     1.037123     1A2     1.037123
       9A1     1.236749     4B1     1.299345     4B2     1.299345
      10A1     1.539496     5B1     2.346781     5B2     2.346781
      11A1     2.472309    12A1     2.684746     2A2     2.936594
      13A1     2.936594     6B1     2.949777     6B2     2.949777
       7B1     3.081892     7B2     3.081892    14A1     3.137803
      15A1     3.369410     3A2     3.369411     8B1     3.438058
       8B2     3.438058    16A1     3.447041     4A2     3.741616
      17A1     3.741620     9B1     4.037460     9B2     4.037460
      18A1     4.303357    10B1     4.637406    10B2     4.637406
      19A1     4.736828    20A1     7.011835

    Final Occupation by Irrep:
             A1    A2    B1    B2
    DOCC [     3,    0,    0,    0 ]
    SOCC [     0,    0,    1,    1 ]
    NA   [     3,    0,    1,    1 ]
    NB   [     3,    0,    0,    0 ]

  @DF-UKS Final Energy:   -38.52130102165319

   => Energetics <=

    Nuclear Repulsion Energy =              2.4524775431067445
    One-Electron Energy =                 -58.4708015605776410
    Two-Electron Energy =                  22.2252733465323153
    DFT Exchange-Correlation Energy =      -4.7282503507146183
    Empirical Dispersion Energy =           0.0000000000000000
    VV10 Nonlocal Energy =                  0.0000000000000000
    Total Energy =                        -38.5213010216532012

  UHF NO Occupations:
  HONO-2 :    3 A1 1.9974597
  HONO-1 :    1 B1 1.0000000
  HONO-0 :    1 B2 1.0000000
  LUNO+0 :    4 A1 0.0025403
  LUNO+1 :    5 A1 0.0005852
  LUNO+2 :    6 A1 0.0000011
  LUNO+3 :    7 A1 0.0000000

Computation Completed

Properties will be evaluated at   0.000000,   0.000000,   0.000000 [a0]

Properties computed using the B3LYP density matrix

 Multipole Moments:

 ------------------------------------------------------------------------------------
     Multipole            Electronic (a.u.)      Nuclear  (a.u.)        Total (a.u.)
 ------------------------------------------------------------------------------------

 L = 1.  Multiply by 2.5417464519 to convert [e a0] to [Debye]
 Dipole X            :          0.0000000            0.0000000            0.0000000
 Dipole Y            :          0.0000000            0.0000000            0.0000000
 Dipole Z            :         -0.9810170            1.1196468            0.1386298
 Magnitude           :                                                    0.1386298

 L = 2.  Multiply by 1.3450342976 to convert [e a0^2] to [Debye ang]
 Quadrupole XX       :         -8.1079581            0.0000000           -8.1079581
 Quadrupole XY       :          0.0000000            0.0000000            0.0000000
 Quadrupole XZ       :          0.0000000            0.0000000            0.0000000
 Quadrupole YY       :         -8.1079581            0.0000000           -8.1079581
 Quadrupole YZ       :          0.0000000            0.0000000            0.0000000
 Quadrupole ZZ       :        -14.4982335            5.3094209           -9.1888126
 Traceless XX        :          2.1300918           -1.7698070            0.3602848
 Traceless YY        :          2.1300918           -1.7698070            0.3602848
 Traceless ZZ        :         -4.2601836            3.5396139           -0.7205696

 ------------------------------------------------------------------------------------
  ==> Computing MBIS Charges <==

  Electron Count from Grid (Expected Number):  8.00000 ( 8.00000)
  Difference:  0.00000

  MBIS Charges: (a.u.)
   Center  Symbol  Z      Pop.       Charge
      1       C    6    6.891819   -0.891819
      2       H    1    1.108181   -0.108181

  MBIS Dipoles: [e a0]
   Center  Symbol  Z        X           Y           Z
      1       C    6   -0.000000    0.000000    0.225470
      2       H    1   -0.000000    0.000000   -0.011726

  MBIS Quadrupoles: [e a0^2]
   Center  Symbol  Z      XX        XY        XZ        YY        YZ        ZZ
      1       C    6   -7.0726    0.0000   -0.0000   -7.0726    0.0000   -7.3487
      2       H    1   -1.0354    0.0000   -0.0000   -1.0354    0.0000   -1.1186

  MBIS Octupoles: [e a0^3]
   Center  Symbol  Z      XXX       XXY       XXZ       XYY       XYZ       XZZ       YYY       YYZ       YZZ       ZZZ
      1       C    6    0.0000   -0.0000    0.2284   -0.0000   -0.0000   -0.0000   -0.0000    0.2284    0.0000   -0.6719
      2       H    1    0.0000    0.0000   -0.0930   -0.0000   -0.0000   -0.0000    0.0000   -0.0930   -0.0000   -0.2288

  MBIS Radial Moments:
   Center  Symbol  Z      [a0^2]      [a0^3]      [a0^4]
      1       C    6   21.493873   61.067745   204.871573
      2       H    1    3.189349    7.880197   23.165600

  MBIS Valence Widths: [a0]
   Center  Symbol  Z     Width
      1       C    6    0.593014
      2       H    1    0.486731

*** tstop() called on Mac.lan at Sun Aug 10 17:36:02 2025
Module time:
	user time   =       3.07 seconds =       0.05 minutes
	system time =       1.42 seconds =       0.02 minutes
	total time  =          0 seconds =       0.00 minutes
Total time:
	user time   =      12.97 seconds =       0.22 minutes
	system time =       3.60 seconds =       0.06 minutes
	total time  =          2 seconds =       0.03 minutes

    Psi4 stopped on: Sunday, 10 August 2025 05:36PM
    Psi4 wall time for execution: 0:00:01.62

*** Psi4 exiting successfully. Buy a developer a beer!
