                               Psi4 1.9.1 release

  ==> Input File <==

--------------------------------------------------------------------------
molecule {
-1 2
O           0.000000           0.000000           0.000000
O           0.000000           0.000000           0.949417
}

set {
basis              cc-pvtz
reference          uks
maxiter            500
DAMPING_PERCENTAGE 1
E_CONVERGENCE      1.0E-8
D_CONVERGENCE      1.0E-8
DIIS_MAX_VECS      400
MBIS_MAXITER       8000
guess              read
}

E, wfn = energy('b3lyp', restart_file='last_wfn', return_wfn=True)
properties('b3lyp','MBIS_CHARGES', wfn=wfn)
wfn.to_file('last_wfn')
--------------------------------------------------------------------------

    Molecular point group: d2h
  Charge       = -1
  Multiplicity = 2
  Basis Set: CC-PVTZ
    Blend: CC-PVTZ
  Basis Set: (CC-PVTZ AUX)
    Blend: CC-PVTZ-JKFIT
  @DF-UKS Final Energy:  -150.05699864013664
    Total Energy =                       -150.0569986401366407
 Dipole X            :          0.0000000            0.0000000            0.0000000
 Dipole Y            :          0.0000000            0.0000000            0.0000000
 Dipole Z            :          0.0000000            0.0000000            0.0000000
 Magnitude           :                                                    0.0000000
    Molecular point group: d2h

    Geometry (in Angstrom), charge = -1, multiplicity = 2:

       Center              X                  Y                   Z               Mass
    ------------   -----------------  -----------------  -----------------  -----------------
         O            0.000000000000     0.000000000000    -0.474708500000    15.994914619570
         O            0.000000000000     0.000000000000     0.474708500000    15.994914619570

  Charge       = -1
  Multiplicity = 2
  Basis Set: CC-PVTZ
    Blend: CC-PVTZ
  Basis Set: (CC-PVTZ AUX)
    Blend: CC-PVTZ-JKFIT

    Orbital Energies [Eh]
    ---------------------

    Alpha Occupied:

       1Ag   -18.780788     1B1u  -18.778632     2Ag    -1.111900
       2B1u   -0.320671     1B2u   -0.262587     1B3u   -0.223310
       3Ag    -0.169424     1B3g    0.224482     1B2g    0.264589

    Alpha Virtual:

       3B1u    0.629215     2B2u    0.789772     2B3u    0.810633
       4Ag     0.824861     2B3g    0.956784     2B2g    0.979124
       5Ag     1.028198     4B1u    1.302233     5B1u    1.507814
       1B1g    1.545968     6Ag     1.546280     3B2u    1.873964
       3B3u    1.903322     1Au     2.121238     6B1u    2.121483
       7Ag     2.558612     3B3g    2.635874     3B2g    2.661884
       7B1u    2.876129     4B2u    3.828638     4B3u    3.863750
       8Ag     4.194555     4B3g    4.323795     4B2g    4.360800
       8B1u    4.813039     2B1g    4.967691     9Ag     4.968090
       5B2u    5.118296     5B3u    5.118372     6B2u    5.238396
       6B3u    5.267661     5B3g    5.765651     5B2g    5.765665
      10Ag     5.797935    11Ag     6.452355     3B1g    6.452357
       6B3g    6.485863     6B2g    6.515965     9B1u    6.533782
       2Au     6.631216    10B1u    6.632219     3Au     6.877358
      11B1u    6.878451    12Ag     7.162805     7B2u    7.200553
       7B3u    7.233805    12B1u    8.121723     7B3g    8.894213
       7B2g    8.926214    13Ag     9.066394    13B1u   22.157852

    Beta Occupied:

       1Ag   -18.767639     1B1u  -18.765377     2Ag    -1.091909
       2B1u   -0.280247     1B3u   -0.212350     1B2u   -0.188654
       3Ag    -0.146642     1B2g    0.278784

    Beta Virtual:

       1B3g    0.386479     3B1u    0.636773     2B3u    0.814669
       2B2u    0.815487     4Ag     0.829888     2B2g    0.986482
       2B3g    1.005534     5Ag     1.040909     4B1u    1.322529
       5B1u    1.527237     1B1g    1.564584     6Ag     1.565689
       3B3u    1.906434     3B2u    1.908697     1Au     2.152807
       6B1u    2.154429     7Ag     2.569882     3B2g    2.666595
       3B3g    2.671367     7B1u    2.889899     4B3u    3.874042
       4B2u    3.885773     8Ag     4.206437     4B2g    4.371685
       4B3g    4.381312     8B1u    4.834706     2B1g    4.983574
       9Ag     4.984555     5B3u    5.147949     5B2u    5.148122
       6B2u    5.268176     6B3u    5.271207     5B2g    5.800855
       5B3g    5.801086    10Ag     5.811557     3B1g    6.498870
      11Ag     6.501789     6B2g    6.520823     6B3g    6.527741
       9B1u    6.553516     2Au     6.679260    10B1u    6.682476
       3Au     6.900943    11B1u    6.902186    12Ag     7.185550
       7B3u    7.238766     7B2u    7.240997    12B1u    8.137311
       7B2g    8.931529     7B3g    8.932144    13Ag     9.082635
      13B1u   22.176535

    Final Occupation by Irrep:
             Ag   B1g   B2g   B3g    Au   B1u   B2u   B3u
    DOCC [     3,    0,    1,    0,    0,    2,    1,    1 ]
    SOCC [     0,    0,    0,    1,    0,    0,    0,    0 ]
    NA   [     3,    0,    1,    1,    0,    2,    1,    1 ]
    NB   [     3,    0,    1,    0,    0,    2,    1,    1 ]

  @DF-UKS Final Energy:  -150.05699863994963

   => Energetics <=

    Nuclear Repulsion Energy =             35.6717243138473563
    One-Electron Energy =                -282.8316090971004542
    Two-Electron Energy =                 111.4548000113150721
    DFT Exchange-Correlation Energy =     -14.3519138680116018
    Empirical Dispersion Energy =           0.0000000000000000
    VV10 Nonlocal Energy =                  0.0000000000000000
    Total Energy =                       -150.0569986399495974

  UHF NO Occupations:
  HONO-2 :    2B1u 1.9997640
  HONO-1 :    1B2u 1.9994690
  HONO-0 :    1B3g 1.0000000
  LUNO+0 :    2B2u 0.0005310
  LUNO+1 :    3B1u 0.0002360
  LUNO+2 :    4 Ag 0.0001238
  LUNO+3 :    2B2g 0.0000596

Computation Completed

Properties will be evaluated at   0.000000,   0.000000,   0.000000 [a0]

Properties computed using the B3LYP density matrix

 Multipole Moments:

 ------------------------------------------------------------------------------------
     Multipole            Electronic (a.u.)      Nuclear  (a.u.)        Total (a.u.)
 ------------------------------------------------------------------------------------

 L = 1.  Multiply by 2.5417464519 to convert [e a0] to [Debye]
 Dipole X            :          0.0000000            0.0000000            0.0000000
 Dipole Y            :          0.0000000            0.0000000            0.0000000
 Dipole Z            :          0.0000000            0.0000000            0.0000000
 Magnitude           :                                                    0.0000000

 L = 2.  Multiply by 1.3450342976 to convert [e a0^2] to [Debye ang]
 Quadrupole XX       :         -9.2463537            0.0000000           -9.2463537
 Quadrupole XY       :          0.0000000            0.0000000            0.0000000
 Quadrupole XZ       :          0.0000000            0.0000000            0.0000000
 Quadrupole YY       :         -8.2868453            0.0000000           -8.2868453
 Quadrupole YZ       :          0.0000000            0.0000000            0.0000000
 Quadrupole ZZ       :        -24.2046023           12.8757262          -11.3288760
 Traceless XX        :          4.6662468           -4.2919087            0.3743380
 Traceless YY        :          5.6257551           -4.2919087            1.3338463
 Traceless ZZ        :        -10.2920018            8.5838175           -1.7081844

 ------------------------------------------------------------------------------------
  ==> Computing MBIS Charges <==

  Electron Count from Grid (Expected Number): 17.00000 (17.00000)
  Difference: -0.00000

  MBIS Charges: (a.u.)
   Center  Symbol  Z      Pop.       Charge
      1       O    8    8.500000   -0.500000
      2       O    8    8.500000   -0.500000

  MBIS Dipoles: [e a0]
   Center  Symbol  Z        X           Y           Z
      1       O    8   -0.000000   -0.000000    0.363480
      2       O    8   -0.000000   -0.000000   -0.363480

  MBIS Quadrupoles: [e a0^2]
   Center  Symbol  Z      XX        XY        XZ        YY        YZ        ZZ
      1       O    8   -4.6232   -0.0000    0.0000   -4.1434   -0.0000   -4.6099
      2       O    8   -4.6232   -0.0000   -0.0000   -4.1434   -0.0000   -4.6099

  MBIS Octupoles: [e a0^3]
   Center  Symbol  Z      XXX       XXY       XXZ       XYY       XYZ       XZZ       YYY       YYZ       YZZ       ZZZ
      1       O    8   -0.0000   -0.0000    0.7444   -0.0000   -0.0000   -0.0000    0.0000    0.5178   -0.0000    0.2731
      2       O    8   -0.0000   -0.0000   -0.7444   -0.0000    0.0000   -0.0000    0.0000   -0.5178   -0.0000   -0.2731

  MBIS Radial Moments:
   Center  Symbol  Z      [a0^2]      [a0^3]      [a0^4]
      1       O    8   13.376537   26.912224   64.958193
      2       O    8   13.376537   26.912224   64.958193

  MBIS Valence Widths: [a0]
   Center  Symbol  Z     Width
      1       O    8    0.402775
      2       O    8    0.402775

*** tstop() called on Mac.lan at Sun Aug 10 17:27:24 2025
Module time:
	user time   =       3.25 seconds =       0.05 minutes
	system time =       2.27 seconds =       0.04 minutes
	total time  =          0 seconds =       0.00 minutes
Total time:
	user time   =      16.38 seconds =       0.27 minutes
	system time =       4.48 seconds =       0.07 minutes
	total time  =          2 seconds =       0.03 minutes

    Psi4 stopped on: Sunday, 10 August 2025 05:27PM
    Psi4 wall time for execution: 0:00:02.03

*** Psi4 exiting successfully. Buy a developer a beer!
