                               Psi4 1.9.1 release

  ==> Input File <==

--------------------------------------------------------------------------
molecule {
-1 3
O           0.000000           0.000000           0.000000
N           0.000000           0.000000           1.784355
}

set {
basis              cc-pvtz
reference          uks
maxiter            500
DAMPING_PERCENTAGE 1
E_CONVERGENCE      1.0E-8
D_CONVERGENCE      1.0E-8
DIIS_MAX_VECS      400
MBIS_MAXITER       8000
guess              read
}

E, wfn = energy('b3lyp', restart_file='last_wfn', return_wfn=True)
properties('b3lyp','MBIS_CHARGES', wfn=wfn)
wfn.to_file('last_wfn')
--------------------------------------------------------------------------

    Molecular point group: c2v
  Charge       = -1
  Multiplicity = 3
  Basis Set: CC-PVTZ
    Blend: CC-PVTZ
  Basis Set: (CC-PVTZ AUX)
    Blend: CC-PVTZ-JKFIT
  @DF-UKS Final Energy:  -129.82686566104090
    Total Energy =                       -129.8268656610408982
 Dipole X            :          0.0000000            0.0000000            0.0000000
 Dipole Y            :          0.0000000            0.0000000            0.0000000
 Dipole Z            :          0.2248407           -0.0067657            0.2180751
 Magnitude           :                                                    0.2180751
    Molecular point group: c2v

    Geometry (in Angstrom), charge = -1, multiplicity = 3:

       Center              X                  Y                   Z               Mass
    ------------   -----------------  -----------------  -----------------  -----------------
         O            0.000000000000     0.000000000000    -0.832937682201    15.994914619570
         N            0.000000000000     0.000000000000     0.951417317799    14.003074004430

  Charge       = -1
  Multiplicity = 3
  Basis Set: CC-PVTZ
    Blend: CC-PVTZ
  Basis Set: (CC-PVTZ AUX)
    Blend: CC-PVTZ-JKFIT

    Orbital Energies [Eh]
    ---------------------

    Alpha Occupied:

       1A1   -18.840431     2A1   -14.121235     3A1    -0.600883
       4A1    -0.444779     1B1    -0.057269     1B2    -0.057269
       5A1    -0.055550     2B1     0.026028     2B2     0.026028

    Alpha Virtual:

       6A1     0.237611     7A1     0.681353     3B2     0.701815
       3B1     0.701815     8A1     0.815936     4B1     0.897033
       4B2     0.897033     9A1     0.906002     1A2     1.279241
      10A1     1.279242     5B2     1.291044     5B1     1.291044
      11A1     1.334082    12A1     1.608680     2A2     1.800972
      13A1     1.800973     6B1     1.993783     6B2     1.993783
      14A1     2.312876     7B1     3.062388     7B2     3.062388
      15A1     3.276996    16A1     3.805927     8B1     3.896972
       8B2     3.896972     9B1     4.125443     9B2     4.125443
      17A1     4.135136     3A2     4.135137    10B2     4.184902
      10B1     4.184902    18A1     4.437847     4A2     4.645927
      19A1     4.645948    11B2     4.730402    11B1     4.730402
      20A1     5.076460    12B1     5.455759    12B2     5.455759
       5A2     5.458335    21A1     5.458337    13B2     5.597717
      13B1     5.597717    22A1     5.655367    23A1     5.912336
      24A1     6.505878     6A2     6.505890    14B2     6.670194
      14B1     6.670194    25A1     7.078861    26A1     8.142973

    Beta Occupied:

       1A1   -18.830673     2A1   -14.086075     3A1    -0.568909
       4A1    -0.342755     5A1    -0.037436     1B2     0.024275
       1B1     0.024275

    Beta Virtual:

       2B1     0.185661     2B2     0.185661     6A1     0.266199
       7A1     0.704642     3B2     0.765580     3B1     0.765580
       8A1     0.842248     4B1     0.917864     4B2     0.917864
       9A1     0.918611     5B2     1.323690     5B1     1.323690
      10A1     1.350575    11A1     1.352028     1A2     1.352028
      12A1     1.633911     2A2     1.823404    13A1     1.823405
       6B1     2.010478     6B2     2.010478    14A1     2.329050
       7B1     3.156450     7B2     3.156450    15A1     3.304810
      16A1     3.827925     8B1     3.928221     8B2     3.928221
      17A1     4.206995     3A2     4.206996     9B1     4.226385
       9B2     4.226385    10B2     4.237338    10B1     4.237338
      18A1     4.476536     4A2     4.782660    19A1     4.782679
      11B2     4.810304    11B1     4.810304    20A1     5.109499
       5A2     5.473990    21A1     5.473991    12B1     5.486052
      12B2     5.486052    13B2     5.608231    13B1     5.608231
      22A1     5.725330    23A1     5.924227    24A1     6.550437
       6A2     6.550449    14B2     6.686167    14B1     6.686167
      25A1     7.078712    26A1     8.165454

    Final Occupation by Irrep:
             A1    A2    B1    B2
    DOCC [     5,    0,    1,    1 ]
    SOCC [     0,    0,    1,    1 ]
    NA   [     5,    0,    2,    2 ]
    NB   [     5,    0,    1,    1 ]

  @DF-UKS Final Energy:  -129.82686566085397

   => Energetics <=

    Nuclear Repulsion Energy =             16.6076390614647877
    One-Electron Energy =                -215.9236250322579735
    Two-Electron Energy =                  82.0038450763940006
    DFT Exchange-Correlation Energy =     -12.5147247664547923
    Empirical Dispersion Energy =           0.0000000000000000
    VV10 Nonlocal Energy =                  0.0000000000000000
    Total Energy =                       -129.8268656608539686

  UHF NO Occupations:
  HONO-2 :    5 A1 1.9916387
  HONO-1 :    2 B1 1.0000000
  HONO-0 :    2 B2 1.0000000
  LUNO+0 :    6 A1 0.0083613
  LUNO+1 :    3 B1 0.0015632
  LUNO+2 :    3 B2 0.0015632
  LUNO+3 :    7 A1 0.0007225

Computation Completed

Properties will be evaluated at   0.000000,   0.000000,   0.000000 [a0]

Properties computed using the B3LYP density matrix

 Multipole Moments:

 ------------------------------------------------------------------------------------
     Multipole            Electronic (a.u.)      Nuclear  (a.u.)        Total (a.u.)
 ------------------------------------------------------------------------------------

 L = 1.  Multiply by 2.5417464519 to convert [e a0] to [Debye]
 Dipole X            :          0.0000000            0.0000000            0.0000000
 Dipole Y            :          0.0000000            0.0000000            0.0000000
 Dipole Z            :          0.2248407           -0.0067657            0.2180751
 Magnitude           :                                                    0.2180751

 L = 2.  Multiply by 1.3450342976 to convert [e a0^2] to [Debye ang]
 Quadrupole XX       :         -9.9138122            0.0000000           -9.9138122
 Quadrupole XY       :          0.0000000            0.0000000            0.0000000
 Quadrupole XZ       :          0.0000000            0.0000000            0.0000000
 Quadrupole YY       :         -9.9138122            0.0000000           -9.9138122
 Quadrupole YZ       :          0.0000000            0.0000000            0.0000000
 Quadrupole ZZ       :        -55.1396231           42.4479829          -12.6916402
 Traceless XX        :         15.0752703          -14.1493276            0.9259427
 Traceless YY        :         15.0752703          -14.1493276            0.9259427
 Traceless ZZ        :        -30.1505406           28.2986553           -1.8518853

 ------------------------------------------------------------------------------------
  ==> Computing MBIS Charges <==

  Electron Count from Grid (Expected Number): 16.00000 (16.00000)
  Difference: -0.00000

  MBIS Charges: (a.u.)
   Center  Symbol  Z      Pop.       Charge
      1       O    8    8.637252   -0.637252
      2       N    7    7.362748   -0.362748

  MBIS Dipoles: [e a0]
   Center  Symbol  Z        X           Y           Z
      1       O    8    0.000000    0.000000    0.009057
      2       N    7   -0.000000   -0.000000   -0.141840

  MBIS Quadrupoles: [e a0^2]
   Center  Symbol  Z      XX        XY        XZ        YY        YZ        ZZ
      1       O    8   -4.9499   -0.0000   -0.0000   -4.9499    0.0000   -4.5036
      2       N    7   -4.9639    0.0000   -0.0000   -4.9639   -0.0000   -4.8981

  MBIS Octupoles: [e a0^3]
   Center  Symbol  Z      XXX       XXY       XXZ       XYY       XYZ       XZZ       YYY       YYZ       YZZ       ZZZ
      1       O    8    0.0000   -0.0000   -0.0328   -0.0000   -0.0000    0.0000   -0.0000   -0.0328    0.0000   -0.4221
      2       N    7    0.0000   -0.0000   -0.0218   -0.0000    0.0000    0.0000   -0.0000   -0.0218   -0.0000    0.2093

  MBIS Radial Moments:
   Center  Symbol  Z      [a0^2]      [a0^3]      [a0^4]
      1       O    8   14.403514   29.369456   71.208591
      2       N    7   14.825791   33.559020   90.064036

  MBIS Valence Widths: [a0]
   Center  Symbol  Z     Width
      1       O    8    0.416072
      2       N    7    0.468833

*** tstop() called on Mac.lan at Sun Aug 10 17:47:36 2025
Module time:
	user time   =       3.33 seconds =       0.06 minutes
	system time =       2.42 seconds =       0.04 minutes
	total time  =          1 seconds =       0.02 minutes
Total time:
	user time   =      21.31 seconds =       0.36 minutes
	system time =       4.94 seconds =       0.08 minutes
	total time  =          2 seconds =       0.03 minutes

    Psi4 stopped on: Sunday, 10 August 2025 05:47PM
    Psi4 wall time for execution: 0:00:02.52

*** Psi4 exiting successfully. Buy a developer a beer!
