                               Psi4 1.9.1 release

  ==> Input File <==

--------------------------------------------------------------------------
molecule {
-1 2
C           0.000000           0.000000           0.000000
C           0.000000           0.000000           1.177021
}

set {
basis              cc-pvtz
reference          uks
maxiter            500
DAMPING_PERCENTAGE 1
E_CONVERGENCE      1.0E-8
D_CONVERGENCE      1.0E-8
DIIS_MAX_VECS      400
MBIS_MAXITER       8000
guess              read
}

E, wfn = energy('b3lyp', restart_file='last_wfn', return_wfn=True)
properties('b3lyp','MBIS_CHARGES', wfn=wfn)
wfn.to_file('last_wfn')
--------------------------------------------------------------------------

    Molecular point group: d2h
  Charge       = -1
  Multiplicity = 2
  Basis Set: CC-PVTZ
    Blend: CC-PVTZ
  Basis Set: (CC-PVTZ AUX)
    Blend: CC-PVTZ-JKFIT
  @DF-UKS Final Energy:   -76.04847003500343
    Total Energy =                        -76.0484700350034331
 Dipole X            :          0.0000000            0.0000000            0.0000000
 Dipole Y            :          0.0000000            0.0000000            0.0000000
 Dipole Z            :          0.0000000           -0.0000000           -0.0000000
 Magnitude           :                                                    0.0000000
    Molecular point group: d2h

    Geometry (in Angstrom), charge = -1, multiplicity = 2:

       Center              X                  Y                   Z               Mass
    ------------   -----------------  -----------------  -----------------  -----------------
         C            0.000000000000     0.000000000000    -0.588510500000    12.000000000000
         C            0.000000000000     0.000000000000     0.588510500000    12.000000000000

  Charge       = -1
  Multiplicity = 2
  Basis Set: CC-PVTZ
    Blend: CC-PVTZ
  Basis Set: (CC-PVTZ AUX)
    Blend: CC-PVTZ-JKFIT

    Orbital Energies [Eh]
    ---------------------

    Alpha Occupied:

       1Ag    -9.894044     1B1u   -9.890866     2Ag    -0.485232
       2B1u   -0.104792     3Ag    -0.034171     1B3u   -0.022834
       1B2u   -0.022834

    Alpha Virtual:

       1B3g    0.313095     1B2g    0.313095     3B1u    0.397062
       4Ag     0.497737     2B2u    0.523593     2B3u    0.523593
       5Ag     0.626564     2B3g    0.649071     2B2g    0.649071
       4B1u    0.810000     6Ag     0.865436     1B1g    0.865436
       5B1u    0.994084     3B2u    1.080322     3B3u    1.080322
       6B1u    1.173004     1Au     1.173004     7Ag     1.409838
       3B3g    1.415187     3B2g    1.415187     7B1u    1.808773
       4B2u    2.231475     4B3u    2.231475     8Ag     2.405339
       4B3g    2.560358     4B2g    2.560358     8B1u    2.636470
       9Ag     2.763162     2B1g    2.763162     5B3u    2.803409
       5B2u    2.803409     6B2u    2.851368     6B3u    2.851368
      10Ag     3.074256     5B2g    3.237407     5B3g    3.237407
       6B3g    3.265730     6B2g    3.265730    11Ag     3.279036
       3B1g    3.279036     9B1u    3.350027     2Au     3.350027
      10B1u    3.688469     7B2u    3.847488     7B3u    3.847488
      12Ag     3.869325    11B1u    3.933890     3Au     3.933891
      12B1u    4.472510     7B3g    5.099870     7B2g    5.099870
      13Ag     5.461990    13B1u   14.314934

    Beta Occupied:

       1Ag    -9.885204     1B1u   -9.882360     2Ag    -0.453583
       2B1u   -0.041821     1B3u   -0.014197     1B2u   -0.014197

    Beta Virtual:

       3Ag     0.097459     1B3g    0.326492     1B2g    0.326492
       3B1u    0.408185     4Ag     0.520250     2B2u    0.528037
       2B3u    0.528037     5Ag     0.648617     2B3g    0.657007
       2B2g    0.657007     4B1u    0.835105     6Ag     0.867474
       1B1g    0.867474     5B1u    1.018989     3B2u    1.104265
       3B3u    1.104265     6B1u    1.179920     1Au     1.179920
       3B3g    1.433551     3B2g    1.433551     7Ag     1.443495
       7B1u    1.844509     4B2u    2.238579     4B3u    2.238579
       8Ag     2.433428     4B3g    2.565937     4B2g    2.565937
       8B1u    2.671911     2B1g    2.774271     9Ag     2.774271
       5B3u    2.805317     5B2u    2.805317     6B2u    2.886253
       6B3u    2.886253    10Ag     3.135563     5B2g    3.240633
       5B3g    3.240633    11Ag     3.292431     3B1g    3.292431
       6B3g    3.311617     6B2g    3.311617     9B1u    3.362353
       2Au     3.362354    10B1u    3.727732     7B2u    3.884283
       7B3u    3.884283    12Ag     3.898390    11B1u    3.948224
       3Au     3.948224    12B1u    4.519402     7B3g    5.127257
       7B2g    5.127257    13Ag     5.486098    13B1u   14.330956

    Final Occupation by Irrep:
             Ag   B1g   B2g   B3g    Au   B1u   B2u   B3u
    DOCC [     2,    0,    0,    0,    0,    2,    1,    1 ]
    SOCC [     1,    0,    0,    0,    0,    0,    0,    0 ]
    NA   [     3,    0,    0,    0,    0,    2,    1,    1 ]
    NB   [     2,    0,    0,    0,    0,    2,    1,    1 ]

  @DF-UKS Final Energy:   -76.04847003404726

   => Energetics <=

    Nuclear Repulsion Energy =             16.1852503771130678
    One-Electron Energy =                -137.3374069528103973
    Two-Electron Energy =                  53.9626158511032088
    DFT Exchange-Correlation Energy =      -8.8589293094531296
    Empirical Dispersion Energy =           0.0000000000000000
    VV10 Nonlocal Energy =                  0.0000000000000000
    Total Energy =                        -76.0484700340472557

  UHF NO Occupations:
  HONO-2 :    2 Ag 1.9997365
  HONO-1 :    2B1u 1.9986067
  HONO-0 :    3 Ag 1.0000000
  LUNO+0 :    3B1u 0.0013933
  LUNO+1 :    4 Ag 0.0002635
  LUNO+2 :    2B2u 0.0000927
  LUNO+3 :    2B3u 0.0000927

Computation Completed

Properties will be evaluated at   0.000000,   0.000000,   0.000000 [a0]

Properties computed using the B3LYP density matrix

 Multipole Moments:

 ------------------------------------------------------------------------------------
     Multipole            Electronic (a.u.)      Nuclear  (a.u.)        Total (a.u.)
 ------------------------------------------------------------------------------------

 L = 1.  Multiply by 2.5417464519 to convert [e a0] to [Debye]
 Dipole X            :          0.0000000            0.0000000            0.0000000
 Dipole Y            :          0.0000000            0.0000000            0.0000000
 Dipole Z            :          0.0000000           -0.0000000           -0.0000000
 Magnitude           :                                                    0.0000000

 L = 2.  Multiply by 1.3450342976 to convert [e a0^2] to [Debye ang]
 Quadrupole XX       :        -11.2221405            0.0000000          -11.2221405
 Quadrupole XY       :          0.0000000            0.0000000            0.0000000
 Quadrupole XZ       :          0.0000000            0.0000000            0.0000000
 Quadrupole YY       :        -11.2221405            0.0000000          -11.2221405
 Quadrupole YZ       :          0.0000000            0.0000000            0.0000000
 Quadrupole ZZ       :        -28.1735725           14.8418286          -13.3317439
 Traceless XX        :          5.6504773           -4.9472762            0.7032011
 Traceless YY        :          5.6504773           -4.9472762            0.7032011
 Traceless ZZ        :        -11.3009547            9.8945524           -1.4064023

 ------------------------------------------------------------------------------------
  ==> Computing MBIS Charges <==

  Electron Count from Grid (Expected Number): 13.00000 (13.00000)
  Difference: -0.00000

  MBIS Charges: (a.u.)
   Center  Symbol  Z      Pop.       Charge
      1       C    6    6.500000   -0.500000
      2       C    6    6.500000   -0.500000

  MBIS Dipoles: [e a0]
   Center  Symbol  Z        X           Y           Z
      1       C    6    0.000000    0.000000   -0.032901
      2       C    6    0.000000    0.000000    0.032901

  MBIS Quadrupoles: [e a0^2]
   Center  Symbol  Z      XX        XY        XZ        YY        YZ        ZZ
      1       C    6   -5.6111    0.0000    0.0000   -5.6111   -0.0000   -6.1206
      2       C    6   -5.6111    0.0000   -0.0000   -5.6111    0.0000   -6.1206

  MBIS Octupoles: [e a0^3]
   Center  Symbol  Z      XXX       XXY       XXZ       XYY       XYZ       XZZ       YYY       YYZ       YZZ       ZZZ
      1       C    6   -0.0000    0.0000    0.0107    0.0000    0.0000   -0.0000    0.0000    0.0107    0.0000    0.3758
      2       C    6   -0.0000    0.0000   -0.0107    0.0000   -0.0000   -0.0000    0.0000   -0.0107    0.0000   -0.3758

  MBIS Radial Moments:
   Center  Symbol  Z      [a0^2]      [a0^3]      [a0^4]
      1       C    6   17.342783   46.106641   145.640423
      2       C    6   17.342783   46.106641   145.640423

  MBIS Valence Widths: [a0]
   Center  Symbol  Z     Width
      1       C    6    0.551352
      2       C    6    0.551352

*** tstop() called on Mac.lan at Sun Aug 10 17:30:39 2025
Module time:
	user time   =       3.66 seconds =       0.06 minutes
	system time =       2.31 seconds =       0.04 minutes
	total time  =          0 seconds =       0.00 minutes
Total time:
	user time   =      17.71 seconds =       0.30 minutes
	system time =       4.55 seconds =       0.08 minutes
	total time  =          2 seconds =       0.03 minutes

    Psi4 stopped on: Sunday, 10 August 2025 05:30PM
    Psi4 wall time for execution: 0:00:02.17

*** Psi4 exiting successfully. Buy a developer a beer!
