                               Psi4 1.9.1 release

  ==> Input File <==

--------------------------------------------------------------------------
molecule {
-1 1
O           0.000000           0.000000           0.000000
H           0.000000           0.000000           0.750095
}

set {
basis              cc-pvtz
reference          uks
maxiter            500
DAMPING_PERCENTAGE 1
E_CONVERGENCE      1.0E-8
D_CONVERGENCE      1.0E-8
DIIS_MAX_VECS      400
MBIS_MAXITER       8000
guess              read
}

E, wfn = energy('b3lyp', restart_file='last_wfn', return_wfn=True)
properties('b3lyp','MBIS_CHARGES', wfn=wfn)
wfn.to_file('last_wfn')
--------------------------------------------------------------------------

    Molecular point group: c2v
  Charge       = -1
  Multiplicity = 1
  Basis Set: CC-PVTZ
    Blend: CC-PVTZ
  Basis Set: (CC-PVTZ AUX)
    Blend: CC-PVTZ-JKFIT
  @DF-UKS Final Energy:   -75.71714233916022
    Total Energy =                        -75.7171423391602332
 Dipole X            :          0.0000000            0.0000000            0.0000000
 Dipole Y            :          0.0000000            0.0000000            0.0000000
 Dipole Z            :         -0.0786538            0.6612964            0.5826426
 Magnitude           :                                                    0.5826426
    Molecular point group: c2v

    Geometry (in Angstrom), charge = -1, multiplicity = 1:

       Center              X                  Y                   Z               Mass
    ------------   -----------------  -----------------  -----------------  -----------------
         O            0.000000000000     0.000000000000    -0.044461335822    15.994914619570
         H            0.000000000000     0.000000000000     0.705633664178     1.007825032230

  Charge       = -1
  Multiplicity = 1
  Basis Set: CC-PVTZ
    Blend: CC-PVTZ
  Basis Set: (CC-PVTZ AUX)
    Blend: CC-PVTZ-JKFIT

    Orbital Energies [Eh]
    ---------------------

    Alpha Occupied:

       1A1   -18.630011     2A1    -0.584797     3A1    -0.029533
       1B1     0.121192     1B2     0.121192

    Alpha Virtual:

       4A1     0.329786     5A1     0.813017     6A1     0.907362
       2B2     0.937607     2B1     0.937607     3B1     1.115137
       3B2     1.115137     7A1     1.198062     8A1     1.892157
       1A2     1.892157     9A1     1.965553     4B1     2.260331
       4B2     2.260331    10A1     2.286804    11A1     3.058416
       2A2     3.724681    12A1     3.724681     5B1     3.829681
       5B2     3.829681     6B1     4.122943     6B2     4.122943
      13A1     4.310920     7B1     4.727714     7B2     4.727714
      14A1     4.996127     8B1     5.591867     8B2     5.591867
      15A1     5.895177     3A2     6.174728    16A1     6.174728
      17A1     6.674515     4A2     6.674515     9B2     6.753769
       9B1     6.753769    18A1     7.611287    19A1     7.929254
      10B1     8.084400    10B2     8.084400    20A1    13.171790

    Beta Occupied:

       1A1   -18.630011     2A1    -0.584797     3A1    -0.029533
       1B1     0.121192     1B2     0.121192

    Beta Virtual:

       4A1     0.329786     5A1     0.813017     6A1     0.907362
       2B2     0.937607     2B1     0.937607     3B1     1.115137
       3B2     1.115137     7A1     1.198062     8A1     1.892157
       1A2     1.892157     9A1     1.965553     4B1     2.260331
       4B2     2.260331    10A1     2.286804    11A1     3.058416
       2A2     3.724681    12A1     3.724681     5B1     3.829681
       5B2     3.829681     6B1     4.122943     6B2     4.122943
      13A1     4.310920     7B1     4.727714     7B2     4.727714
      14A1     4.996127     8B1     5.591867     8B2     5.591867
      15A1     5.895177     3A2     6.174728    16A1     6.174728
      17A1     6.674515     4A2     6.674515     9B2     6.753769
       9B1     6.753769    18A1     7.611287    19A1     7.929254
      10B1     8.084400    10B2     8.084400    20A1    13.171790

    Final Occupation by Irrep:
             A1    A2    B1    B2
    DOCC [     3,    0,    1,    1 ]
    SOCC [     0,    0,    0,    0 ]
    NA   [     3,    0,    1,    1 ]
    NB   [     3,    0,    1,    1 ]

  @DF-UKS Final Energy:   -75.71714233932472

   => Energetics <=

    Nuclear Repulsion Energy =              5.6438420271565608
    One-Electron Energy =                -119.2793961294501202
    Two-Electron Energy =                  45.4943796271258663
    DFT Exchange-Correlation Energy =      -7.5759678641570405
    Empirical Dispersion Energy =           0.0000000000000000
    VV10 Nonlocal Energy =                  0.0000000000000000
    Total Energy =                        -75.7171423393247238

  UHF NO Occupations:
  HONO-2 :    2 A1 2.0000000
  HONO-1 :    1 B2 2.0000000
  HONO-0 :    3 A1 2.0000000
  LUNO+0 :    4 A1 0.0000000
  LUNO+1 :    5 A1 0.0000000
  LUNO+2 :    6 A1 0.0000000
  LUNO+3 :    7 A1 0.0000000

Computation Completed

Properties will be evaluated at   0.000000,   0.000000,   0.000000 [a0]

Properties computed using the B3LYP density matrix

 Multipole Moments:

 ------------------------------------------------------------------------------------
     Multipole            Electronic (a.u.)      Nuclear  (a.u.)        Total (a.u.)
 ------------------------------------------------------------------------------------

 L = 1.  Multiply by 2.5417464519 to convert [e a0] to [Debye]
 Dipole X            :          0.0000000            0.0000000            0.0000000
 Dipole Y            :          0.0000000            0.0000000            0.0000000
 Dipole Z            :         -0.0786538            0.6612964            0.5826426
 Magnitude           :                                                    0.5826426

 L = 2.  Multiply by 1.3450342976 to convert [e a0^2] to [Debye ang]
 Quadrupole XX       :         -6.1027134            0.0000000           -6.1027134
 Quadrupole XY       :          0.0000000            0.0000000            0.0000000
 Quadrupole XZ       :          0.0000000            0.0000000            0.0000000
 Quadrupole YY       :         -6.1027134            0.0000000           -6.1027134
 Quadrupole YZ       :          0.0000000            0.0000000            0.0000000
 Quadrupole ZZ       :         -6.8101270            1.8345751           -4.9755519
 Traceless XX        :          0.2358045           -0.6115250           -0.3757205
 Traceless YY        :          0.2358045           -0.6115250           -0.3757205
 Traceless ZZ        :         -0.4716091            1.2230501            0.7514410

 ------------------------------------------------------------------------------------
  ==> Computing MBIS Charges <==

  Electron Count from Grid (Expected Number): 10.00000 (10.00000)
  Difference: -0.00000

  MBIS Charges: (a.u.)
   Center  Symbol  Z      Pop.       Charge
      1       O    8    9.431522   -1.431522
      2       H    1    0.568478    0.431522

  MBIS Dipoles: [e a0]
   Center  Symbol  Z        X           Y           Z
      1       O    8    0.000000    0.000000   -0.125372
      2       H    1    0.000000   -0.000000    0.012324

  MBIS Quadrupoles: [e a0^2]
   Center  Symbol  Z      XX        XY        XZ        YY        YZ        ZZ
      1       O    8   -5.8880    0.0000    0.0000   -5.8880   -0.0000   -5.5712
      2       H    1   -0.2148    0.0000    0.0000   -0.2148   -0.0000   -0.2155

  MBIS Octupoles: [e a0^3]
   Center  Symbol  Z      XXX       XXY       XXZ       XYY       XYZ       XZZ       YYY       YYZ       YZZ       ZZZ
      1       O    8   -0.0000   -0.0000   -0.0538   -0.0000    0.0000    0.0000   -0.0000   -0.0538   -0.0000   -0.6192
      2       H    1    0.0000   -0.0000    0.0021   -0.0000   -0.0000    0.0000   -0.0000    0.0021   -0.0000    0.0001

  MBIS Radial Moments:
   Center  Symbol  Z      [a0^2]      [a0^3]      [a0^4]
      1       O    8   17.347101   36.620155   90.969150
      2       H    1    0.644995    0.993958    1.830596

  MBIS Valence Widths: [a0]
   Center  Symbol  Z     Width
      1       O    8    0.433130
      2       H    1    0.307185

*** tstop() called on Mac.lan at Sun Aug 10 17:37:08 2025
Module time:
	user time   =       3.25 seconds =       0.05 minutes
	system time =       3.12 seconds =       0.05 minutes
	total time  =          1 seconds =       0.02 minutes
Total time:
	user time   =      11.90 seconds =       0.20 minutes
	system time =       5.35 seconds =       0.09 minutes
	total time  =          2 seconds =       0.03 minutes

    Psi4 stopped on: Sunday, 10 August 2025 05:37PM
    Psi4 wall time for execution: 0:00:01.67

*** Psi4 exiting successfully. Buy a developer a beer!
