                               Psi4 1.9.1 release

  ==> Input File <==

--------------------------------------------------------------------------
molecule {
-1 2
O           0.000000           0.000000           0.000000
C           0.000000           0.000000           1.259972
}

set {
basis              cc-pvtz
reference          uks
maxiter            500
DAMPING_PERCENTAGE 1
E_CONVERGENCE      1.0E-8
D_CONVERGENCE      1.0E-8
DIIS_MAX_VECS      400
MBIS_MAXITER       8000
guess              read
}

E, wfn = energy('b3lyp', restart_file='last_wfn', return_wfn=True)
properties('b3lyp','MBIS_CHARGES', wfn=wfn)
wfn.to_file('last_wfn')
--------------------------------------------------------------------------

    Molecular point group: c2v
  Charge       = -1
  Multiplicity = 2
  Basis Set: CC-PVTZ
    Blend: CC-PVTZ
  Basis Set: (CC-PVTZ AUX)
    Blend: CC-PVTZ-JKFIT
  @DF-UKS Final Energy:  -113.28492241495307
    Total Energy =                       -113.2849224149530727
 Dipole X            :          0.0000000            0.0000000            0.0000000
 Dipole Y            :          0.0000000            0.0000000            0.0000000
 Dipole Z            :         -0.6979114           -0.0025951           -0.7005065
 Magnitude           :                                                    0.7005065
    Molecular point group: c2v

    Geometry (in Angstrom), charge = -1, multiplicity = 2:

       Center              X                  Y                   Z               Mass
    ------------   -----------------  -----------------  -----------------  -----------------
         O            0.000000000000     0.000000000000    -0.540086090830    15.994914619570
         C            0.000000000000     0.000000000000     0.719885909170    12.000000000000

  Charge       = -1
  Multiplicity = 2
  Basis Set: CC-PVTZ
    Blend: CC-PVTZ
  Basis Set: (CC-PVTZ AUX)
    Blend: CC-PVTZ-JKFIT

    Orbital Energies [Eh]
    ---------------------

    Alpha Occupied:

       1A1   -18.859071     2A1    -9.927358     3A1    -0.743181
       4A1    -0.242999     1B1    -0.115717     1B2    -0.097928
       5A1    -0.054595     2B1     0.162664

    Alpha Virtual:

       2B2     0.249652     6A1     0.404994     3B1     0.552291
       3B2     0.566552     7A1     0.576640     8A1     0.779003
       9A1     0.815378     4B1     0.893495     4B2     0.896406
       1A2     0.939529    10A1     0.942161     5B1     1.119632
       5B2     1.121356    11A1     1.396046    12A1     1.516765
       2A2     1.799137    13A1     1.799861     6B1     2.110698
       6B2     2.116220    14A1     2.304838     7B1     2.332168
       7B2     2.340062    15A1     2.602920     8B1     2.969053
       8B2     2.969716     3A2     3.087567    16A1     3.089487
       4A2     3.256800    17A1     3.261702     9B1     3.271218
       9B2     3.278126    18A1     3.465445    10B1     3.489740
      10B2     3.492975    19A1     3.553415    11B1     4.253992
      11B2     4.255220    20A1     4.386832    12B1     5.411341
      12B2     5.411383     5A2     5.665814    21A1     5.666339
      22A1     6.076132    13B2     6.240164    13B1     6.241405
       6A2     6.544865    23A1     6.545920    24A1     6.755367
      14B1     7.032973    14B2     7.034236    25A1     7.334482
      26A1    10.713342

    Beta Occupied:

       1A1   -18.851364     2A1    -9.917330     3A1    -0.727817
       4A1    -0.220104     1B2    -0.091899     1B1    -0.066225
       5A1    -0.031273

    Beta Virtual:

       2B2     0.260357     2B1     0.291237     6A1     0.408925
       3B2     0.573591     7A1     0.592049     3B1     0.597821
       8A1     0.794698     9A1     0.821449     4B2     0.898679
       4B1     0.912599     1A2     0.968308    10A1     0.968933
       5B2     1.123081     5B1     1.147210    11A1     1.404537
      12A1     1.525773     2A2     1.813034    13A1     1.813187
       6B2     2.119335     6B1     2.141073    14A1     2.318857
       7B2     2.347913     7B1     2.378243    15A1     2.613189
       8B2     3.008124     8B1     3.008219    16A1     3.110030
       3A2     3.110036     9B2     3.281133    17A1     3.306310
       4A2     3.307543     9B1     3.309777    18A1     3.480562
      10B2     3.496176    10B1     3.521943    19A1     3.566899
      11B2     4.259250    11B1     4.282937    20A1     4.396995
      12B2     5.428113    12B1     5.428117    21A1     5.677838
       5A2     5.677983    22A1     6.085697    13B2     6.242594
      13B1     6.263316    23A1     6.571866     6A2     6.571985
      24A1     6.766047    14B2     7.036765    14B1     7.057220
      25A1     7.344777    26A1    10.726728

    Final Occupation by Irrep:
             A1    A2    B1    B2
    DOCC [     5,    0,    1,    1 ]
    SOCC [     0,    0,    1,    0 ]
    NA   [     5,    0,    2,    1 ]
    NB   [     5,    0,    1,    1 ]

  @DF-UKS Final Energy:  -113.28492241018975

   => Energetics <=

    Nuclear Repulsion Energy =             20.1595798257104093
    One-Electron Energy =                -198.8893018649185365
    Two-Electron Energy =                  76.8667458976551501
    DFT Exchange-Correlation Energy =     -11.4219462686367681
    Empirical Dispersion Energy =           0.0000000000000000
    VV10 Nonlocal Energy =                  0.0000000000000000
    Total Energy =                       -113.2849224101897505

  UHF NO Occupations:
  HONO-2 :    1 B1 1.9993091
  HONO-1 :    5 A1 1.9992445
  HONO-0 :    2 B1 1.0000000
  LUNO+0 :    6 A1 0.0007555
  LUNO+1 :    3 B1 0.0006909
  LUNO+2 :    2 B2 0.0000557
  LUNO+3 :    7 A1 0.0000542

Computation Completed

Properties will be evaluated at   0.000000,   0.000000,   0.000000 [a0]

Properties computed using the B3LYP density matrix

 Multipole Moments:

 ------------------------------------------------------------------------------------
     Multipole            Electronic (a.u.)      Nuclear  (a.u.)        Total (a.u.)
 ------------------------------------------------------------------------------------

 L = 1.  Multiply by 2.5417464519 to convert [e a0] to [Debye]
 Dipole X            :          0.0000000            0.0000000            0.0000000
 Dipole Y            :          0.0000000            0.0000000            0.0000000
 Dipole Z            :         -0.6979114           -0.0025951           -0.7005065
 Magnitude           :                                                    0.7005065

 L = 2.  Multiply by 1.3450342976 to convert [e a0^2] to [Debye ang]
 Quadrupole XX       :        -11.2904276            0.0000000          -11.2904276
 Quadrupole XY       :          0.0000000            0.0000000            0.0000000
 Quadrupole XZ       :          0.0000000            0.0000000            0.0000000
 Quadrupole YY       :         -9.6147254            0.0000000           -9.6147254
 Quadrupole YZ       :          0.0000000            0.0000000            0.0000000
 Quadrupole ZZ       :        -33.1793927           19.4371567          -13.7422360
 Traceless XX        :          6.7377543           -6.4790522            0.2587021
 Traceless YY        :          8.4134565           -6.4790522            1.9344043
 Traceless ZZ        :        -15.1512108           12.9581044           -2.1931063

 ------------------------------------------------------------------------------------
  ==> Computing MBIS Charges <==

  Electron Count from Grid (Expected Number): 15.00000 (15.00000)
  Difference:  0.00000

  MBIS Charges: (a.u.)
   Center  Symbol  Z      Pop.       Charge
      1       O    8    8.383707   -0.383707
      2       C    6    6.616293   -0.616293

  MBIS Dipoles: [e a0]
   Center  Symbol  Z        X           Y           Z
      1       O    8    0.000000   -0.000000    0.105961
      2       C    6    0.000000    0.000000   -0.359686

  MBIS Quadrupoles: [e a0^2]
   Center  Symbol  Z      XX        XY        XZ        YY        YZ        ZZ
      1       O    8   -4.2401   -0.0000    0.0000   -4.0264    0.0000   -4.3200
      2       C    6   -7.0504    0.0000    0.0000   -5.5883    0.0000   -6.6871

  MBIS Octupoles: [e a0^3]
   Center  Symbol  Z      XXX       XXY       XXZ       XYY       XYZ       XZZ       YYY       YYZ       YZZ       ZZZ
      1       O    8   -0.0000   -0.0000    0.1362   -0.0000    0.0000   -0.0000   -0.0000    0.1701   -0.0000    0.1802
      2       C    6   -0.0000   -0.0000   -1.0283   -0.0000    0.0000    0.0000    0.0000   -0.2753    0.0000   -0.2937

  MBIS Radial Moments:
   Center  Symbol  Z      [a0^2]      [a0^3]      [a0^4]
      1       O    8   12.586506   24.365201   56.574555
      2       C    6   19.325732   53.221775   172.016571

  MBIS Valence Widths: [a0]
   Center  Symbol  Z     Width
      1       O    8    0.395598
      2       C    6    0.577839

*** tstop() called on Mac.lan at Sun Aug 10 17:43:07 2025
Module time:
	user time   =       3.61 seconds =       0.06 minutes
	system time =       2.20 seconds =       0.04 minutes
	total time  =          1 seconds =       0.02 minutes
Total time:
	user time   =      19.51 seconds =       0.33 minutes
	system time =       4.12 seconds =       0.07 minutes
	total time  =          2 seconds =       0.03 minutes

    Psi4 stopped on: Sunday, 10 August 2025 05:43PM
    Psi4 wall time for execution: 0:00:02.28

*** Psi4 exiting successfully. Buy a developer a beer!
