                               Psi4 1.9.1 release

  ==> Input File <==

--------------------------------------------------------------------------
molecule {
-1 1
O           0.000000           0.000000           0.000000
H           0.000000           0.000000           1.342641
}

set {
basis              cc-pvtz
reference          uks
maxiter            500
DAMPING_PERCENTAGE 1
E_CONVERGENCE      1.0E-8
D_CONVERGENCE      1.0E-8
DIIS_MAX_VECS      400
MBIS_MAXITER       8000
guess              read
}

E, wfn = energy('b3lyp', restart_file='last_wfn', return_wfn=True)
properties('b3lyp','MBIS_CHARGES', wfn=wfn)
wfn.to_file('last_wfn')
--------------------------------------------------------------------------

    Molecular point group: c2v
  Charge       = -1
  Multiplicity = 1
  Basis Set: CC-PVTZ
    Blend: CC-PVTZ
  Basis Set: (CC-PVTZ AUX)
    Blend: CC-PVTZ-JKFIT
  @DF-UKS Final Energy:   -75.73953406478748
    Total Energy =                        -75.7395340647874775
 Dipole X            :          0.0000000            0.0000000            0.0000000
 Dipole Y            :          0.0000000            0.0000000            0.0000000
 Dipole Z            :         -1.2120451            1.1836949           -0.0283502
 Magnitude           :                                                    0.0283502
    Molecular point group: c2v

    Geometry (in Angstrom), charge = -1, multiplicity = 1:

       Center              X                  Y                   Z               Mass
    ------------   -----------------  -----------------  -----------------  -----------------
         O            0.000000000000     0.000000000000    -0.079584069204    15.994914619570
         H            0.000000000000     0.000000000000     1.263056930796     1.007825032230

  Charge       = -1
  Multiplicity = 1
  Basis Set: CC-PVTZ
    Blend: CC-PVTZ
  Basis Set: (CC-PVTZ AUX)
    Blend: CC-PVTZ-JKFIT

    Orbital Energies [Eh]
    ---------------------

    Alpha Occupied:

       1A1   -18.735266     2A1    -0.492529     3A1    -0.021432
       1B2     0.093150     1B1     0.093150

    Alpha Virtual:

       4A1     0.263345     5A1     0.553416     2B1     0.880064
       2B2     0.880064     6A1     0.894333     3B1     1.016228
       3B2     1.016228     7A1     1.206757     8A1     1.406683
       9A1     1.870089     1A2     1.870089     4B2     1.976826
       4B1     1.976826    10A1     2.394240    11A1     2.688617
       2A2     3.508508    12A1     3.508511    13A1     3.572934
       5B2     3.616763     5B1     3.616763     6B2     3.990607
       6B1     3.990607     7B2     4.110008     7B1     4.110008
      14A1     4.183821    15A1     5.072307     8B1     5.560198
       8B2     5.560198    16A1     5.565091     3A2     5.565091
       9B2     5.873030     9B1     5.873030    17A1     6.283993
      18A1     6.622825     4A2     6.622827    10B2     6.814731
      10B1     6.814731    19A1     7.372845    20A1     8.122230

    Beta Occupied:

       1A1   -18.735266     2A1    -0.492529     3A1    -0.021432
       1B2     0.093150     1B1     0.093150

    Beta Virtual:

       4A1     0.263345     5A1     0.553416     2B1     0.880064
       2B2     0.880064     6A1     0.894333     3B1     1.016228
       3B2     1.016228     7A1     1.206757     8A1     1.406683
       9A1     1.870089     1A2     1.870089     4B2     1.976826
       4B1     1.976826    10A1     2.394240    11A1     2.688617
       2A2     3.508508    12A1     3.508511    13A1     3.572934
       5B2     3.616763     5B1     3.616763     6B2     3.990607
       6B1     3.990607     7B2     4.110008     7B1     4.110008
      14A1     4.183821    15A1     5.072307     8B1     5.560198
       8B2     5.560198    16A1     5.565091     3A2     5.565091
       9B2     5.873030     9B1     5.873030    17A1     6.283993
      18A1     6.622825     4A2     6.622827    10B2     6.814731
      10B1     6.814731    19A1     7.372845    20A1     8.122230

    Final Occupation by Irrep:
             A1    A2    B1    B2
    DOCC [     3,    0,    1,    1 ]
    SOCC [     0,    0,    0,    0 ]
    NA   [     3,    0,    1,    1 ]
    NB   [     3,    0,    1,    1 ]

  @DF-UKS Final Energy:   -75.73953406491987

   => Energetics <=

    Nuclear Repulsion Energy =              3.1530525921374366
    One-Electron Energy =                -114.3731651138413667
    Two-Electron Energy =                  42.8337676606121605
    DFT Exchange-Correlation Energy =      -7.3531892038281050
    Empirical Dispersion Energy =           0.0000000000000000
    VV10 Nonlocal Energy =                  0.0000000000000000
    Total Energy =                        -75.7395340649198801

  UHF NO Occupations:
  HONO-2 :    1 A1 2.0000000
  HONO-1 :    2 A1 2.0000000
  HONO-0 :    3 A1 2.0000000
  LUNO+0 :    4 A1 0.0000000
  LUNO+1 :    5 A1 0.0000000
  LUNO+2 :    6 A1 0.0000000
  LUNO+3 :    7 A1 0.0000000

Computation Completed

Properties will be evaluated at   0.000000,   0.000000,   0.000000 [a0]

Properties computed using the B3LYP density matrix

 Multipole Moments:

 ------------------------------------------------------------------------------------
     Multipole            Electronic (a.u.)      Nuclear  (a.u.)        Total (a.u.)
 ------------------------------------------------------------------------------------

 L = 1.  Multiply by 2.5417464519 to convert [e a0] to [Debye]
 Dipole X            :          0.0000000            0.0000000            0.0000000
 Dipole Y            :          0.0000000            0.0000000            0.0000000
 Dipole Z            :         -1.2120451            1.1836949           -0.0283502
 Magnitude           :                                                    0.0283502

 L = 2.  Multiply by 1.3450342976 to convert [e a0^2] to [Debye ang]
 Quadrupole XX       :         -6.6789877            0.0000000           -6.6789877
 Quadrupole XY       :          0.0000000            0.0000000            0.0000000
 Quadrupole XZ       :          0.0000000            0.0000000            0.0000000
 Quadrupole YY       :         -6.6789877            0.0000000           -6.6789877
 Quadrupole YZ       :          0.0000000            0.0000000            0.0000000
 Quadrupole ZZ       :        -12.0117130            5.8779077           -6.1338052
 Traceless XX        :          1.7775751           -1.9593026           -0.1817275
 Traceless YY        :          1.7775751           -1.9593026           -0.1817275
 Traceless ZZ        :         -3.5551502            3.9186052            0.3634550

 ------------------------------------------------------------------------------------
  ==> Computing MBIS Charges <==

  Electron Count from Grid (Expected Number): 10.00000 (10.00000)
  Difference:  0.00000

  MBIS Charges: (a.u.)
   Center  Symbol  Z      Pop.       Charge
      1       O    8    8.961272   -0.961272
      2       H    1    1.038728   -0.038728

  MBIS Dipoles: [e a0]
   Center  Symbol  Z        X           Y           Z
      1       O    8    0.000000    0.000000   -0.098385
      2       H    1    0.000000    0.000000    0.017904

  MBIS Quadrupoles: [e a0^2]
   Center  Symbol  Z      XX        XY        XZ        YY        YZ        ZZ
      1       O    8   -5.5597    0.0000    0.0000   -5.5597    0.0000   -4.9167
      2       H    1   -1.1193    0.0000    0.0000   -1.1193    0.0000   -1.0898

  MBIS Octupoles: [e a0^3]
   Center  Symbol  Z      XXX       XXY       XXZ       XYY       XYZ       XZZ       YYY       YYZ       YZZ       ZZZ
      1       O    8   -0.0000   -0.0000   -0.2016    0.0000    0.0000   -0.0000   -0.0000   -0.2016    0.0000   -0.9801
      2       H    1    0.0000    0.0000    0.0103    0.0000   -0.0000   -0.0000    0.0000    0.0103    0.0000    0.0103

  MBIS Radial Moments:
   Center  Symbol  Z      [a0^2]      [a0^3]      [a0^4]
      1       O    8   16.036156   33.770307   84.406788
      2       H    1    3.328311    8.531541   25.743046

  MBIS Valence Widths: [a0]
   Center  Symbol  Z     Width
      1       O    8    0.429550
      2       H    1    0.515817

*** tstop() called on Mac.lan at Sun Aug 10 17:38:31 2025
Module time:
	user time   =       2.68 seconds =       0.04 minutes
	system time =       1.99 seconds =       0.03 minutes
	total time  =          1 seconds =       0.02 minutes
Total time:
	user time   =      13.81 seconds =       0.23 minutes
	system time =       3.97 seconds =       0.07 minutes
	total time  =          2 seconds =       0.03 minutes

    Psi4 stopped on: Sunday, 10 August 2025 05:38PM
    Psi4 wall time for execution: 0:00:01.74

*** Psi4 exiting successfully. Buy a developer a beer!
