                               Psi4 1.9.1 release

  ==> Input File <==

--------------------------------------------------------------------------
molecule {
-1 2
H           0.000000           0.000000           0.000000
H           0.000000           0.000000           0.571160
}

set {
basis              cc-pvtz
reference          uks
maxiter            500
DAMPING_PERCENTAGE 1
E_CONVERGENCE      1.0E-8
D_CONVERGENCE      1.0E-8
DIIS_MAX_VECS      400
MBIS_MAXITER       8000
guess              read
}

E, wfn = energy('b3lyp', restart_file='last_wfn', return_wfn=True)
properties('b3lyp','MBIS_CHARGES', wfn=wfn)
wfn.to_file('last_wfn')
--------------------------------------------------------------------------

    Molecular point group: d2h
  Charge       = -1
  Multiplicity = 2
  Basis Set: CC-PVTZ
    Blend: CC-PVTZ
  Basis Set: (CC-PVTZ AUX)
    Blend: CC-PVTZ-JKFIT
  @DF-UKS Final Energy:    -0.99648089860671
    Total Energy =                         -0.9964808986067066
 Dipole X            :          0.0000000            0.0000000            0.0000000
 Dipole Y            :          0.0000000            0.0000000            0.0000000
 Dipole Z            :          0.0000000            0.0000000            0.0000000
 Magnitude           :                                                    0.0000000
    Molecular point group: d2h

    Geometry (in Angstrom), charge = -1, multiplicity = 2:

       Center              X                  Y                   Z               Mass
    ------------   -----------------  -----------------  -----------------  -----------------
         H            0.000000000000     0.000000000000    -0.285580000000     1.007825032230
         H            0.000000000000     0.000000000000     0.285580000000     1.007825032230

  Charge       = -1
  Multiplicity = 2
  Basis Set: CC-PVTZ
    Blend: CC-PVTZ
  Basis Set: (CC-PVTZ AUX)
    Blend: CC-PVTZ-JKFIT

    Orbital Energies [Eh]
    ---------------------

    Alpha Occupied:

       1Ag    -0.185884     1B1u    0.231861

    Alpha Virtual:

       2Ag     0.397268     2B1u    0.775315     1B3u    0.813897
       1B2u    0.813897     3Ag     1.214868     1B3g    1.230782
       1B2g    1.230782     3B1u    1.665559     4Ag     2.264334
       4B1u    2.570147     5Ag     3.212131     1B1g    3.212131
       2B3u    3.442235     2B2u    3.442235     6Ag     3.698934
       2B3g    3.719625     2B2g    3.719625     1Au     4.264074
       5B1u    4.264074     3B2u    4.282960     3B3u    4.282960
       6B1u    5.109040     3B2g    6.447550     3B3g    6.447550
       7Ag     6.457205     7B1u    8.313356

    Beta Occupied:

       1Ag    -0.176698

    Beta Virtual:

       1B1u    0.328017     2Ag     0.418630     2B1u    0.801449
       1B3u    0.814834     1B2u    0.814834     1B3g    1.248515
       1B2g    1.248515     3Ag     1.252208     3B1u    1.680027
       4Ag     2.267690     4B1u    2.595155     5Ag     3.212218
       1B1g    3.212218     2B3u    3.441143     2B2u    3.441143
       6Ag     3.724046     2B3g    3.737399     2B2g    3.737399
       5B1u    4.270941     1Au     4.270941     3B2u    4.296505
       3B3u    4.296505     6B1u    5.125502     3B2g    6.456599
       3B3g    6.456599     7Ag     6.466726     7B1u    8.323863

    Final Occupation by Irrep:
             Ag   B1g   B2g   B3g    Au   B1u   B2u   B3u
    DOCC [     1,    0,    0,    0,    0,    0,    0,    0 ]
    SOCC [     0,    0,    0,    0,    0,    1,    0,    0 ]
    NA   [     1,    0,    0,    0,    0,    1,    0,    0 ]
    NB   [     1,    0,    0,    0,    0,    0,    0,    0 ]

  @DF-UKS Final Energy:    -0.99648089909571

   => Energetics <=

    Nuclear Repulsion Energy =              0.9264955715911480
    One-Electron Energy =                  -3.1594692123727728
    Two-Electron Energy =                   2.0049566053882422
    DFT Exchange-Correlation Energy =      -0.7684638637023302
    Empirical Dispersion Energy =           0.0000000000000000
    VV10 Nonlocal Energy =                  0.0000000000000000
    Total Energy =                         -0.9964808990957126

  UHF NO Occupations:
  HONO-1 :    1 Ag 1.9997641
  HONO-0 :    1B1u 1.0000000
  LUNO+0 :    2 Ag 0.0002359
  LUNO+1 :    3 Ag 0.0000000
  LUNO+2 :    2B1u 0.0000000
  LUNO+3 :    4 Ag 0.0000000

Computation Completed

Properties will be evaluated at   0.000000,   0.000000,   0.000000 [a0]

Properties computed using the B3LYP density matrix

 Multipole Moments:

 ------------------------------------------------------------------------------------
     Multipole            Electronic (a.u.)      Nuclear  (a.u.)        Total (a.u.)
 ------------------------------------------------------------------------------------

 L = 1.  Multiply by 2.5417464519 to convert [e a0] to [Debye]
 Dipole X            :          0.0000000            0.0000000            0.0000000
 Dipole Y            :          0.0000000            0.0000000            0.0000000
 Dipole Z            :          0.0000000            0.0000000            0.0000000
 Magnitude           :                                                    0.0000000

 L = 2.  Multiply by 1.3450342976 to convert [e a0^2] to [Debye ang]
 Quadrupole XX       :         -4.0971533            0.0000000           -4.0971533
 Quadrupole XY       :          0.0000000            0.0000000            0.0000000
 Quadrupole XZ       :          0.0000000            0.0000000            0.0000000
 Quadrupole YY       :         -4.0971533            0.0000000           -4.0971533
 Quadrupole YZ       :          0.0000000            0.0000000            0.0000000
 Quadrupole ZZ       :        -10.0357366            0.5824831           -9.4532535
 Traceless XX        :          1.9795278           -0.1941610            1.7853667
 Traceless YY        :          1.9795278           -0.1941610            1.7853667
 Traceless ZZ        :         -3.9590555            0.3883220           -3.5707335

 ------------------------------------------------------------------------------------
  ==> Computing MBIS Charges <==

  Electron Count from Grid (Expected Number):  3.00000 ( 3.00000)
  Difference:  0.00000

  MBIS Charges: (a.u.)
   Center  Symbol  Z      Pop.       Charge
      1       H    1    1.500000   -0.500000
      2       H    1    1.500000   -0.500000

  MBIS Dipoles: [e a0]
   Center  Symbol  Z        X           Y           Z
      1       H    1   -0.000000    0.000000    0.313633
      2       H    1    0.000000    0.000000   -0.313633

  MBIS Quadrupoles: [e a0^2]
   Center  Symbol  Z      XX        XY        XZ        YY        YZ        ZZ
      1       H    1   -2.0486    0.0000   -0.0000   -2.0486   -0.0000   -4.2425
      2       H    1   -2.0486    0.0000   -0.0000   -2.0486   -0.0000   -4.2425

  MBIS Octupoles: [e a0^3]
   Center  Symbol  Z      XXX       XXY       XXZ       XYY       XYZ       XZZ       YYY       YYZ       YZZ       ZZZ
      1       H    1   -0.0000    0.0000    0.9035    0.0000   -0.0000   -0.0000   -0.0000    0.9035    0.0000    2.1705
      2       H    1    0.0000   -0.0000   -0.9035   -0.0000   -0.0000   -0.0000    0.0000   -0.9035   -0.0000   -2.1705

  MBIS Radial Moments:
   Center  Symbol  Z      [a0^2]      [a0^3]      [a0^4]
      1       H    1    8.339644   29.479501   119.380731
      2       H    1    8.339644   29.479501   119.380731

  MBIS Valence Widths: [a0]
   Center  Symbol  Z     Width
      1       H    1    0.653760
      2       H    1    0.653760

*** tstop() called on Mac.lan at Sun Aug 10 17:26:01 2025
Module time:
	user time   =       0.58 seconds =       0.01 minutes
	system time =       1.28 seconds =       0.02 minutes
	total time  =          0 seconds =       0.00 minutes
Total time:
	user time   =       2.00 seconds =       0.03 minutes
	system time =       3.04 seconds =       0.05 minutes
	total time  =          1 seconds =       0.02 minutes

    Psi4 stopped on: Sunday, 10 August 2025 05:26PM
    Psi4 wall time for execution: 0:00:00.82

*** Psi4 exiting successfully. Buy a developer a beer!
