                               Psi4 1.9.1 release

  ==> Input File <==

--------------------------------------------------------------------------
molecule {
-1 2
N           0.000000           0.000000           0.000000
N           0.000000           0.000000           1.671197
}

set {
basis              cc-pvtz
reference          uks
maxiter            500
DAMPING_PERCENTAGE 1
E_CONVERGENCE      1.0E-8
D_CONVERGENCE      1.0E-8
DIIS_MAX_VECS      400
MBIS_MAXITER       8000
guess              read
}

E, wfn = energy('b3lyp', restart_file='last_wfn', return_wfn=True)
properties('b3lyp','MBIS_CHARGES', wfn=wfn)
wfn.to_file('last_wfn')
--------------------------------------------------------------------------

    Molecular point group: d2h
  Charge       = -1
  Multiplicity = 2
  Basis Set: CC-PVTZ
    Blend: CC-PVTZ
  Basis Set: (CC-PVTZ AUX)
    Blend: CC-PVTZ-JKFIT
  @DF-UKS Final Energy:  -109.33148310272121
    Total Energy =                       -109.3314831027212080
 Dipole X            :          0.0000000            0.0000000            0.0000000
 Dipole Y            :          0.0000000            0.0000000            0.0000000
 Dipole Z            :          0.0000000            0.0000000            0.0000000
 Magnitude           :                                                    0.0000000
    Molecular point group: d2h

    Geometry (in Angstrom), charge = -1, multiplicity = 2:

       Center              X                  Y                   Z               Mass
    ------------   -----------------  -----------------  -----------------  -----------------
         N            0.000000000000     0.000000000000    -0.835598500000    14.003074004430
         N            0.000000000000     0.000000000000     0.835598500000    14.003074004430

  Charge       = -1
  Multiplicity = 2
  Basis Set: CC-PVTZ
    Blend: CC-PVTZ
  Basis Set: (CC-PVTZ AUX)
    Blend: CC-PVTZ-JKFIT

    Orbital Energies [Eh]
    ---------------------

    Alpha Occupied:

       1Ag   -14.096163     1B1u  -14.096086     2Ag    -0.520040
       2B1u   -0.338505     3Ag    -0.044119     1B3u   -0.042017
       1B2u   -0.009200     1B2g    0.065769

    Alpha Virtual:

       1B3g    0.159379     3B1u    0.326220     4B1u    0.669816
       2B3u    0.706666     2B2u    0.715430     4Ag     0.728779
       2B2g    0.769008     2B3g    0.779706     5Ag     0.824036
       5B1u    1.141757     3B2u    1.201486     3B3u    1.203377
       1B1g    1.233425     6Ag     1.234593     1Au     1.422257
       6B1u    1.423642     7Ag     1.644601     3B2g    1.774309
       3B3g    1.775279     7B1u    2.006676     4B3u    3.026880
       8Ag     3.028242     4B2u    3.040393     4B2g    3.168777
       4B3g    3.181717     8B1u    3.638364     5B2u    3.886096
       5B3u    3.887893     9Ag     3.935037     2B1g    4.000088
      10Ag     4.001394     6B3u    4.149102     6B2u    4.149369
       5B2g    4.196444     5B3g    4.196713     2Au     4.357129
       9B1u    4.358598     6B2g    4.628032     6B3g    4.633259
       3B1g    4.671845    11Ag     4.675111     7B3u    4.780197
       7B2u    4.789135     3Au     4.791218    10B1u    4.793550
      11B1u    4.805773    12Ag     5.137658     7B2g    5.302386
       7B3g    5.305302    12B1u    5.490663    13Ag     5.853680
      13B1u    6.835995

    Beta Occupied:

       1Ag   -14.084794     1B1u  -14.084689     2Ag    -0.492077
       2B1u   -0.301426     3Ag    -0.032744     1B2u    0.000396
       1B3u    0.032305

    Beta Virtual:

       1B3g    0.171444     1B2g    0.206304     3B1u    0.341165
       4B1u    0.676817     2B2u    0.720777     4Ag     0.737503
       2B3u    0.742559     2B3g    0.785396     2B2g    0.805388
       5Ag     0.830107     5B1u    1.156070     3B2u    1.202212
       3B3u    1.222417     6Ag     1.253708     1B1g    1.253718
       1Au     1.448452     6B1u    1.448678     7Ag     1.657292
       3B3g    1.778080     3B2g    1.800344     7B1u    2.014986
       8Ag     3.034742     4B2u    3.048306     4B3u    3.077838
       4B3g    3.190839     4B2g    3.222695     8B1u    3.651521
       5B2u    3.889413     5B3u    3.915401     9Ag     3.947691
       2B1g    4.021234    10Ag     4.024222     6B2u    4.182202
       6B3u    4.182250     5B3g    4.229648     5B2g    4.229673
       9B1u    4.381012     2Au     4.381023     6B3g    4.638020
       6B2g    4.665471    11Ag     4.718969     3B1g    4.719146
       7B2u    4.794209    10B1u    4.813985     7B3u    4.824278
       3Au     4.836875    11B1u    4.841860    12Ag     5.147937
       7B3g    5.308557     7B2g    5.335965    12B1u    5.506848
      13Ag     5.878231    13B1u    6.851855

    Final Occupation by Irrep:
             Ag   B1g   B2g   B3g    Au   B1u   B2u   B3u
    DOCC [     3,    0,    0,    0,    0,    2,    1,    1 ]
    SOCC [     0,    0,    1,    0,    0,    0,    0,    0 ]
    NA   [     3,    0,    1,    0,    0,    2,    1,    1 ]
    NB   [     3,    0,    0,    0,    0,    2,    1,    1 ]

  @DF-UKS Final Energy:  -109.33148310150037

   => Energetics <=

    Nuclear Repulsion Energy =             15.5156353935711913
    One-Electron Energy =                -183.6650509039596102
    Two-Electron Energy =                  69.9044919556764910
    DFT Exchange-Correlation Energy =     -11.0865595467884415
    Empirical Dispersion Energy =           0.0000000000000000
    VV10 Nonlocal Energy =                  0.0000000000000000
    Total Energy =                       -109.3314831015003676

  UHF NO Occupations:
  HONO-2 :    2B1u 1.9996345
  HONO-1 :    1B3u 1.9978617
  HONO-0 :    1B2g 1.0000000
  LUNO+0 :    2B3u 0.0021383
  LUNO+1 :    3B1u 0.0003655
  LUNO+2 :    4 Ag 0.0002040
  LUNO+3 :    2B2u 0.0000628

Computation Completed

Properties will be evaluated at   0.000000,   0.000000,   0.000000 [a0]

Properties computed using the B3LYP density matrix

 Multipole Moments:

 ------------------------------------------------------------------------------------
     Multipole            Electronic (a.u.)      Nuclear  (a.u.)        Total (a.u.)
 ------------------------------------------------------------------------------------

 L = 1.  Multiply by 2.5417464519 to convert [e a0] to [Debye]
 Dipole X            :          0.0000000            0.0000000            0.0000000
 Dipole Y            :          0.0000000            0.0000000            0.0000000
 Dipole Z            :          0.0000000            0.0000000            0.0000000
 Magnitude           :                                                    0.0000000

 L = 2.  Multiply by 1.3450342976 to convert [e a0^2] to [Debye ang]
 Quadrupole XX       :        -10.9853231            0.0000000          -10.9853231
 Quadrupole XY       :          0.0000000            0.0000000            0.0000000
 Quadrupole XZ       :          0.0000000            0.0000000            0.0000000
 Quadrupole YY       :         -9.9937453            0.0000000           -9.9937453
 Quadrupole YZ       :          0.0000000            0.0000000            0.0000000
 Quadrupole ZZ       :        -48.3162087           34.9076870          -13.4085217
 Traceless XX        :         12.1131026          -11.6358957            0.4772070
 Traceless YY        :         13.1046804          -11.6358957            1.4687847
 Traceless ZZ        :        -25.2177830           23.2717914           -1.9459917

 ------------------------------------------------------------------------------------
  ==> Computing MBIS Charges <==

  Electron Count from Grid (Expected Number): 15.00000 (15.00000)
  Difference: -0.00000

  MBIS Charges: (a.u.)
   Center  Symbol  Z      Pop.       Charge
      1       N    7    7.500000   -0.500000
      2       N    7    7.500000   -0.500000

  MBIS Dipoles: [e a0]
   Center  Symbol  Z        X           Y           Z
      1       N    7   -0.000000   -0.000000    0.066551
      2       N    7    0.000000    0.000000   -0.066551

  MBIS Quadrupoles: [e a0^2]
   Center  Symbol  Z      XX        XY        XZ        YY        YZ        ZZ
      1       N    7   -5.4927   -0.0000   -0.0000   -4.9969    0.0000   -5.2474
      2       N    7   -5.4927   -0.0000    0.0000   -4.9969   -0.0000   -5.2474

  MBIS Octupoles: [e a0^3]
   Center  Symbol  Z      XXX       XXY       XXZ       XYY       XYZ       XZZ       YYY       YYZ       YZZ       ZZZ
      1       N    7   -0.0000    0.0000   -0.0070   -0.0000   -0.0000   -0.0000   -0.0000   -0.1667   -0.0000   -0.3976
      2       N    7   -0.0000    0.0000    0.0070   -0.0000    0.0000   -0.0000   -0.0000    0.1667    0.0000    0.3976

  MBIS Radial Moments:
   Center  Symbol  Z      [a0^2]      [a0^3]      [a0^4]
      1       N    7   15.736919   36.210561   98.559272
      2       N    7   15.736919   36.210561   98.559272

  MBIS Valence Widths: [a0]
   Center  Symbol  Z     Width
      1       N    7    0.477877
      2       N    7    0.477877

*** tstop() called on Mac.lan at Sun Aug 10 17:34:14 2025
Module time:
	user time   =       3.34 seconds =       0.06 minutes
	system time =       2.48 seconds =       0.04 minutes
	total time  =          0 seconds =       0.00 minutes
Total time:
	user time   =      15.14 seconds =       0.25 minutes
	system time =       4.89 seconds =       0.08 minutes
	total time  =          2 seconds =       0.03 minutes

    Psi4 stopped on: Sunday, 10 August 2025 05:34PM
    Psi4 wall time for execution: 0:00:01.95

*** Psi4 exiting successfully. Buy a developer a beer!
