                               Psi4 1.9.1 release

  ==> Input File <==

--------------------------------------------------------------------------
molecule {
-1 2
C           0.000000           0.000000           0.000000
C           0.000000           0.000000           1.383449
}

set {
basis              cc-pvtz
reference          uks
maxiter            500
DAMPING_PERCENTAGE 1
E_CONVERGENCE      1.0E-8
D_CONVERGENCE      1.0E-8
DIIS_MAX_VECS      400
MBIS_MAXITER       8000
guess              read
}

E, wfn = energy('b3lyp', restart_file='last_wfn', return_wfn=True)
properties('b3lyp','MBIS_CHARGES', wfn=wfn)
wfn.to_file('last_wfn')
--------------------------------------------------------------------------

    Molecular point group: d2h
  Charge       = -1
  Multiplicity = 2
  Basis Set: CC-PVTZ
    Blend: CC-PVTZ
  Basis Set: (CC-PVTZ AUX)
    Blend: CC-PVTZ-JKFIT
  @DF-UKS Final Energy:   -76.04123541599932
    Total Energy =                        -76.0412354159993242
 Dipole X            :          0.0000000            0.0000000            0.0000000
 Dipole Y            :          0.0000000            0.0000000            0.0000000
 Dipole Z            :          0.0000000           -0.0000000           -0.0000000
 Magnitude           :                                                    0.0000000
    Molecular point group: d2h

    Geometry (in Angstrom), charge = -1, multiplicity = 2:

       Center              X                  Y                   Z               Mass
    ------------   -----------------  -----------------  -----------------  -----------------
         C            0.000000000000     0.000000000000    -0.691724500000    12.000000000000
         C            0.000000000000     0.000000000000     0.691724500000    12.000000000000

  Charge       = -1
  Multiplicity = 2
  Basis Set: CC-PVTZ
    Blend: CC-PVTZ
  Basis Set: (CC-PVTZ AUX)
    Blend: CC-PVTZ-JKFIT

    Orbital Energies [Eh]
    ---------------------

    Alpha Occupied:

       1Ag    -9.948483     1B1u   -9.947789     2Ag    -0.442965
       2B1u   -0.145651     3Ag    -0.040916     1B2u   -0.002449
       1B3u   -0.002449

    Alpha Virtual:

       1B2g    0.257635     1B3g    0.257635     3B1u    0.387486
       4Ag     0.507510     2B3u    0.534478     2B2u    0.534478
       5Ag     0.612755     2B3g    0.618266     2B2g    0.618266
       4B1u    0.727127     5B1u    0.856823     1B1g    0.860406
       6Ag     0.860406     3B2u    1.001496     3B3u    1.001496
       1Au     1.123985     6B1u    1.123985     3B3g    1.392007
       3B2g    1.392007     7Ag     1.414245     7B1u    1.510494
       4B2u    2.229995     4B3u    2.229995     8Ag     2.319384
       4B2g    2.432528     4B3g    2.432528     8B1u    2.684622
       2B1g    2.710976     9Ag     2.710976     5B3u    2.744143
       5B2u    2.744143     6B2u    2.848626     6B3u    2.848626
      10Ag     2.947783     5B2g    3.128059     5B3g    3.128059
       3B1g    3.234489    11Ag     3.234492     2Au     3.322135
       9B1u    3.322138     6B3g    3.342745     6B2g    3.342745
      10B1u    3.391120     7B2u    3.635563     7B3u    3.635563
       3Au     3.645607    11B1u    3.645607    12Ag     4.021477
      12B1u    4.065553    13Ag     4.563673     7B3g    4.593347
       7B2g    4.593347    13B1u   10.073592

    Beta Occupied:

       1Ag    -9.940268     1B1u   -9.939736     2Ag    -0.411786
       2B1u   -0.086154     1B2u    0.005372     1B3u    0.005372

    Beta Virtual:

       3Ag     0.091088     1B2g    0.269990     1B3g    0.269990
       3B1u    0.397360     4Ag     0.533052     2B3u    0.538634
       2B2u    0.538634     2B3g    0.623803     2B2g    0.623803
       5Ag     0.630985     4B1u    0.777682     1B1g    0.861912
       6Ag     0.861912     5B1u    0.865251     3B2u    1.025394
       3B3u    1.025394     1Au     1.128931     6B1u    1.128931
       3B3g    1.412142     3B2g    1.412142     7Ag     1.446741
       7B1u    1.543990     4B2u    2.236666     4B3u    2.236666
       8Ag     2.351818     4B2g    2.437438     4B3g    2.437438
       8B1u    2.721197     2B1g    2.727660     9Ag     2.727660
       5B3u    2.775588     5B2u    2.775588     6B2u    2.850004
       6B3u    2.850004    10Ag     3.005836     5B2g    3.129507
       5B3g    3.129507     3B1g    3.241862    11Ag     3.241866
       2Au     3.326911     9B1u    3.326915     6B3g    3.387707
       6B2g    3.387707    10B1u    3.429721     3Au     3.664037
      11B1u    3.664038     7B2u    3.674954     7B3u    3.674954
      12Ag     4.049515    12B1u    4.114797    13Ag     4.594418
       7B3g    4.620953     7B2g    4.620953    13B1u   10.090008

    Final Occupation by Irrep:
             Ag   B1g   B2g   B3g    Au   B1u   B2u   B3u
    DOCC [     2,    0,    0,    0,    0,    2,    1,    1 ]
    SOCC [     1,    0,    0,    0,    0,    0,    0,    0 ]
    NA   [     3,    0,    0,    0,    0,    2,    1,    1 ]
    NB   [     2,    0,    0,    0,    0,    2,    1,    1 ]

  @DF-UKS Final Energy:   -76.04123524587703

   => Energetics <=

    Nuclear Repulsion Energy =             13.7702073470868829
    One-Electron Energy =                -132.4317790869267810
    Two-Electron Energy =                  51.3479424703400653
    DFT Exchange-Correlation Energy =      -8.7276059763771929
    Empirical Dispersion Energy =           0.0000000000000000
    VV10 Nonlocal Energy =                  0.0000000000000000
    Total Energy =                        -76.0412352458770329

  UHF NO Occupations:
  HONO-2 :    2 Ag 1.9996808
  HONO-1 :    2B1u 1.9981985
  HONO-0 :    3 Ag 1.0000000
  LUNO+0 :    3B1u 0.0018015
  LUNO+1 :    4 Ag 0.0003192
  LUNO+2 :    2B3u 0.0001085
  LUNO+3 :    2B2u 0.0001085

Computation Completed

Properties will be evaluated at   0.000000,   0.000000,   0.000000 [a0]

Properties computed using the B3LYP density matrix

 Multipole Moments:

 ------------------------------------------------------------------------------------
     Multipole            Electronic (a.u.)      Nuclear  (a.u.)        Total (a.u.)
 ------------------------------------------------------------------------------------

 L = 1.  Multiply by 2.5417464519 to convert [e a0] to [Debye]
 Dipole X            :          0.0000000            0.0000000            0.0000000
 Dipole Y            :          0.0000000            0.0000000            0.0000000
 Dipole Z            :          0.0000000           -0.0000000           -0.0000000
 Magnitude           :                                                    0.0000000

 L = 2.  Multiply by 1.3450342976 to convert [e a0^2] to [Debye ang]
 Quadrupole XX       :        -11.8627651            0.0000000          -11.8627651
 Quadrupole XY       :          0.0000000            0.0000000            0.0000000
 Quadrupole XZ       :          0.0000000            0.0000000            0.0000000
 Quadrupole YY       :        -11.8627651            0.0000000          -11.8627651
 Quadrupole YZ       :          0.0000000            0.0000000            0.0000000
 Quadrupole ZZ       :        -34.0216500           20.5043165          -13.5173335
 Traceless XX        :          7.3862950           -6.8347722            0.5515228
 Traceless YY        :          7.3862950           -6.8347722            0.5515228
 Traceless ZZ        :        -14.7725899           13.6695443           -1.1030456

 ------------------------------------------------------------------------------------
  ==> Computing MBIS Charges <==

  Electron Count from Grid (Expected Number): 13.00000 (13.00000)
  Difference:  0.00000

  MBIS Charges: (a.u.)
   Center  Symbol  Z      Pop.       Charge
      1       C    6    6.500000   -0.500000
      2       C    6    6.500000   -0.500000

  MBIS Dipoles: [e a0]
   Center  Symbol  Z        X           Y           Z
      1       C    6   -0.000000    0.000000   -0.089287
      2       C    6   -0.000000    0.000000    0.089287

  MBIS Quadrupoles: [e a0^2]
   Center  Symbol  Z      XX        XY        XZ        YY        YZ        ZZ
      1       C    6   -5.9314    0.0000   -0.0000   -5.9314   -0.0000   -6.1377
      2       C    6   -5.9314    0.0000    0.0000   -5.9314    0.0000   -6.1377

  MBIS Octupoles: [e a0^3]
   Center  Symbol  Z      XXX       XXY       XXZ       XYY       XYZ       XZZ       YYY       YYZ       YZZ       ZZZ
      1       C    6   -0.0000    0.0000   -0.2734    0.0000   -0.0000   -0.0000    0.0000   -0.2734    0.0000   -0.4591
      2       C    6   -0.0000    0.0000    0.2734    0.0000    0.0000   -0.0000    0.0000    0.2734    0.0000    0.4591

  MBIS Radial Moments:
   Center  Symbol  Z      [a0^2]      [a0^3]      [a0^4]
      1       C    6   18.000510   48.499823   154.634687
      2       C    6   18.000510   48.499823   154.634687

  MBIS Valence Widths: [a0]
   Center  Symbol  Z     Width
      1       C    6    0.563499
      2       C    6    0.563499

*** tstop() called on Mac.lan at Sun Aug 10 17:30:57 2025
Module time:
	user time   =      12.94 seconds =       0.22 minutes
	system time =       1.87 seconds =       0.03 minutes
	total time  =          1 seconds =       0.02 minutes
Total time:
	user time   =      22.74 seconds =       0.38 minutes
	system time =       3.89 seconds =       0.06 minutes
	total time  =          3 seconds =       0.05 minutes

    Psi4 stopped on: Sunday, 10 August 2025 05:30PM
    Psi4 wall time for execution: 0:00:02.64

*** Psi4 exiting successfully. Buy a developer a beer!
