                               Psi4 1.9.1 release

  ==> Input File <==

--------------------------------------------------------------------------
molecule {
-1 2
O           0.000000           0.000000           0.000000
C           0.000000           0.000000           1.632973
}

set {
basis              cc-pvtz
reference          uks
maxiter            500
DAMPING_PERCENTAGE 1
E_CONVERGENCE      1.0E-8
D_CONVERGENCE      1.0E-8
DIIS_MAX_VECS      400
MBIS_MAXITER       8000
guess              read
}

E, wfn = energy('b3lyp', restart_file='last_wfn', return_wfn=True)
properties('b3lyp','MBIS_CHARGES', wfn=wfn)
wfn.to_file('last_wfn')
--------------------------------------------------------------------------

    Molecular point group: c2v
  Charge       = -1
  Multiplicity = 2
  Basis Set: CC-PVTZ
    Blend: CC-PVTZ
  Basis Set: (CC-PVTZ AUX)
    Blend: CC-PVTZ-JKFIT
  @DF-UKS Final Energy:  -113.18844735187348
    Total Energy =                       -113.1884473518734779
 Dipole X            :          0.0000000            0.0000000            0.0000000
 Dipole Y            :          0.0000000            0.0000000            0.0000000
 Dipole Z            :         -0.1941024           -0.0033634           -0.1974658
 Magnitude           :                                                    0.1974658
    Molecular point group: c2v

    Geometry (in Angstrom), charge = -1, multiplicity = 2:

       Center              X                  Y                   Z               Mass
    ------------   -----------------  -----------------  -----------------  -----------------
         O            0.000000000000     0.000000000000    -0.699972700981    15.994914619570
         C            0.000000000000     0.000000000000     0.933000299019    12.000000000000

  Charge       = -1
  Multiplicity = 2
  Basis Set: CC-PVTZ
    Blend: CC-PVTZ
  Basis Set: (CC-PVTZ AUX)
    Blend: CC-PVTZ-JKFIT

    Orbital Energies [Eh]
    ---------------------

    Alpha Occupied:

       1A1   -18.851205     2A1    -9.999464     3A1    -0.617077
       4A1    -0.263032     1B1    -0.048561     5A1    -0.046525
       1B2    -0.024977     2B1     0.080320

    Alpha Virtual:

       2B2     0.170638     6A1     0.329535     3B1     0.541947
       7A1     0.554038     3B2     0.556738     8A1     0.600708
       9A1     0.826948     4B1     0.890852     4B2     0.894701
       1A2     0.927287    10A1     0.929973     5B1     1.035685
       5B2     1.036205    11A1     1.263012    12A1     1.510369
       2A2     1.787316    13A1     1.787826     6B1     1.936572
       6B2     1.938466    14A1     2.111739     7B1     2.259634
       7B2     2.274741    15A1     2.613637     8B1     2.939506
       8B2     2.940372     3A2     2.971892    16A1     2.974446
       9B1     3.112803     9B2     3.118266    17A1     3.136334
       4A2     3.204715    18A1     3.211018    10B1     3.388429
      10B2     3.396824    19A1     3.492624    11B1     3.988363
      11B2     3.993354    20A1     4.015490    21A1     4.968249
      12B1     5.440809    12B2     5.440850     5A2     5.474418
      22A1     5.474841    13B2     5.680311    13B1     5.683321
      23A1     6.019825     6A2     6.517308    24A1     6.518403
      14B1     6.793639    14B2     6.796337    25A1     7.316573
      26A1     8.502045

    Beta Occupied:

       1A1   -18.847405     2A1    -9.986103     3A1    -0.607420
       4A1    -0.223373     5A1    -0.035036     1B2    -0.026510
       1B1    -0.003578

    Beta Virtual:

       2B2     0.184602     2B1     0.219184     6A1     0.341754
       7A1     0.562003     3B2     0.567789     3B1     0.592946
       8A1     0.619112     9A1     0.831195     4B2     0.892576
       4B1     0.907883     1A2     0.963094    10A1     0.963276
       5B2     1.039384     5B1     1.059992    11A1     1.274003
      12A1     1.514082     2A2     1.794068    13A1     1.794166
       6B2     1.938558     6B1     1.957371    14A1     2.119653
       7B2     2.288204     7B1     2.322473    15A1     2.629294
       8B2     2.988850     8B1     2.989018    16A1     3.002868
       3A2     3.003517     9B2     3.125830    17A1     3.150412
       9B1     3.154317    18A1     3.269942     4A2     3.270696
      10B2     3.402770    10B1     3.434099    19A1     3.513176
      11B2     3.990416    11B1     4.011805    20A1     4.031026
      21A1     4.976316    12B2     5.449449    12B1     5.449459
       5A2     5.479856    22A1     5.479952    13B2     5.677475
      13B1     5.694881    23A1     6.024784     6A2     6.531770
      24A1     6.531816    14B2     6.791968    14B1     6.811723
      25A1     7.321351    26A1     8.508973

    Final Occupation by Irrep:
             A1    A2    B1    B2
    DOCC [     5,    0,    1,    1 ]
    SOCC [     0,    0,    1,    0 ]
    NA   [     5,    0,    2,    1 ]
    NB   [     5,    0,    1,    1 ]

  @DF-UKS Final Energy:  -113.18844735174230

   => Energetics <=

    Nuclear Repulsion Energy =             15.5547618436802075
    One-Electron Energy =                -189.8588047381537365
    Two-Electron Energy =                  72.4065563152061458
    DFT Exchange-Correlation Energy =     -11.2909607724749144
    Empirical Dispersion Energy =           0.0000000000000000
    VV10 Nonlocal Energy =                  0.0000000000000000
    Total Energy =                       -113.1884473517422975

  UHF NO Occupations:
  HONO-2 :    5 A1 1.9989265
  HONO-1 :    1 B2 1.9970502
  HONO-0 :    2 B1 1.0000000
  LUNO+0 :    2 B2 0.0029498
  LUNO+1 :    6 A1 0.0010735
  LUNO+2 :    3 B1 0.0009377
  LUNO+3 :    7 A1 0.0001112

Computation Completed

Properties will be evaluated at   0.000000,   0.000000,   0.000000 [a0]

Properties computed using the B3LYP density matrix

 Multipole Moments:

 ------------------------------------------------------------------------------------
     Multipole            Electronic (a.u.)      Nuclear  (a.u.)        Total (a.u.)
 ------------------------------------------------------------------------------------

 L = 1.  Multiply by 2.5417464519 to convert [e a0] to [Debye]
 Dipole X            :          0.0000000            0.0000000            0.0000000
 Dipole Y            :          0.0000000            0.0000000            0.0000000
 Dipole Z            :         -0.1941023           -0.0033634           -0.1974657
 Magnitude           :                                                    0.1974657

 L = 2.  Multiply by 1.3450342976 to convert [e a0^2] to [Debye ang]
 Quadrupole XX       :        -11.2335673            0.0000000          -11.2335673
 Quadrupole XY       :          0.0000000            0.0000000            0.0000000
 Quadrupole XZ       :          0.0000000            0.0000000            0.0000000
 Quadrupole YY       :         -9.9027182            0.0000000           -9.9027182
 Quadrupole YZ       :          0.0000000            0.0000000            0.0000000
 Quadrupole ZZ       :        -46.7741638           32.6489302          -14.1252336
 Traceless XX        :         11.4032491          -10.8829767            0.5202724
 Traceless YY        :         12.7340982          -10.8829767            1.8511215
 Traceless ZZ        :        -24.1373474           21.7659534           -2.3713939

 ------------------------------------------------------------------------------------
  ==> Computing MBIS Charges <==

  Electron Count from Grid (Expected Number): 15.00000 (15.00000)
  Difference: -0.00000

  MBIS Charges: (a.u.)
   Center  Symbol  Z      Pop.       Charge
      1       O    8    8.585407   -0.585407
      2       C    6    6.414592   -0.414592

  MBIS Dipoles: [e a0]
   Center  Symbol  Z        X           Y           Z
      1       O    8   -0.000000   -0.000000    0.037435
      2       C    6   -0.000000    0.000000   -0.278279

  MBIS Quadrupoles: [e a0^2]
   Center  Symbol  Z      XX        XY        XZ        YY        YZ        ZZ
      1       O    8   -4.7999   -0.0000   -0.0000   -4.5887    0.0000   -4.5930
      2       C    6   -6.4337    0.0000    0.0000   -5.3140    0.0000   -6.1389

  MBIS Octupoles: [e a0^3]
   Center  Symbol  Z      XXX       XXY       XXZ       XYY       XYZ       XZZ       YYY       YYZ       YZZ       ZZZ
      1       O    8    0.0000   -0.0000    0.0257   -0.0000    0.0000    0.0000   -0.0000    0.0163    0.0000   -0.1288
      2       C    6   -0.0000   -0.0000   -0.4588   -0.0000    0.0000    0.0000    0.0000   -0.0276    0.0000   -0.0135

  MBIS Radial Moments:
   Center  Symbol  Z      [a0^2]      [a0^3]      [a0^4]
      1       O    8   13.981614   28.163600   67.667294
      2       C    6   17.886521   48.246152   153.178169

  MBIS Valence Widths: [a0]
   Center  Symbol  Z     Width
      1       O    8    0.411424
      2       C    6    0.568041

*** tstop() called on Mac.lan at Sun Aug 10 17:43:43 2025
Module time:
	user time   =       3.46 seconds =       0.06 minutes
	system time =       2.02 seconds =       0.03 minutes
	total time  =          0 seconds =       0.00 minutes
Total time:
	user time   =      22.57 seconds =       0.38 minutes
	system time =       4.07 seconds =       0.07 minutes
	total time  =          2 seconds =       0.03 minutes

    Psi4 stopped on: Sunday, 10 August 2025 05:43PM
    Psi4 wall time for execution: 0:00:02.57

*** Psi4 exiting successfully. Buy a developer a beer!
