                               Psi4 1.9.1 release

  ==> Input File <==

--------------------------------------------------------------------------
molecule {
-1 2
O           0.000000           0.000000           0.000000
C           0.000000           0.000000           0.686123
}

set {
basis              cc-pvtz
reference          uks
maxiter            500
DAMPING_PERCENTAGE 1
E_CONVERGENCE      1.0E-8
D_CONVERGENCE      1.0E-8
DIIS_MAX_VECS      400
MBIS_MAXITER       8000
guess              read
}

E, wfn = energy('b3lyp', restart_file='last_wfn', return_wfn=True)
properties('b3lyp','MBIS_CHARGES', wfn=wfn)
wfn.to_file('last_wfn')
--------------------------------------------------------------------------

    Molecular point group: c2v
  Charge       = -1
  Multiplicity = 2
  Basis Set: CC-PVTZ
    Blend: CC-PVTZ
  Basis Set: (CC-PVTZ AUX)
    Blend: CC-PVTZ-JKFIT
  @DF-UKS Final Energy:  -111.68637198682862
    Total Energy =                       -111.6863719868286182
 Dipole X            :          0.0000000            0.0000000            0.0000000
 Dipole Y            :          0.0000000            0.0000000            0.0000000
 Dipole Z            :         -1.7401236           -0.0014132           -1.7415368
 Magnitude           :                                                    1.7415368
    Molecular point group: c2v

    Geometry (in Angstrom), charge = -1, multiplicity = 2:

       Center              X                  Y                   Z               Mass
    ------------   -----------------  -----------------  -----------------  -----------------
         O            0.000000000000     0.000000000000    -0.294106130056    15.994914619570
         C            0.000000000000     0.000000000000     0.392016869944    12.000000000000

  Charge       = -1
  Multiplicity = 2
  Basis Set: CC-PVTZ
    Blend: CC-PVTZ
  Basis Set: (CC-PVTZ AUX)
    Blend: CC-PVTZ-JKFIT

    Orbital Energies [Eh]
    ---------------------

    Alpha Occupied:

       1A1   -18.910853     2A1    -9.935057     3A1    -1.004276
       1B2    -0.433081     1B1    -0.432963     4A1    -0.287040
       5A1    -0.040615     2B1     0.307937

    Alpha Virtual:

       2B2     0.369470     6A1     0.387050     7A1     0.537248
       3B2     0.586676     3B1     0.594216     8A1     0.787692
       4B1     0.867857     4B2     0.869281     1A2     0.905738
       9A1     0.908141    10A1     1.144094     5B2     1.367754
       5B1     1.369102    11A1     1.618496     6B2     1.857284
       6B1     1.863886     2A2     1.911388    12A1     1.912627
      13A1     2.048141    14A1     2.624028     7B2     2.635883
       7B1     2.639278     8B1     2.931678     8B2     2.931732
      15A1     3.099348     3A2     3.164943    16A1     3.165817
       9B2     3.367683     9B1     3.372830    17A1     3.505917
       4A2     3.506785    18A1     3.525132    10B2     4.343470
      10B1     4.345000    11B2     4.558972    11B1     4.563576
      19A1     4.787750    12B1     5.573187    12B2     5.573195
      20A1     6.172461     5A2     6.483657    21A1     6.484060
       6A2     6.859126    22A1     6.859296    13B2     6.924805
      13B1     6.927702    23A1     6.984431    24A1     8.027578
      14B2     8.205652    14B1     8.206669    25A1    10.557129
      26A1    18.282549

    Beta Occupied:

       1A1   -18.906583     2A1    -9.936155     3A1    -0.998766
       1B2    -0.431271     1B1    -0.417439     4A1    -0.282361
       5A1    -0.030306

    Beta Virtual:

       2B2     0.382169     6A1     0.397481     2B1     0.407583
       7A1     0.554106     3B2     0.584406     3B1     0.597167
       8A1     0.794913     4B2     0.871429     4B1     0.886685
       1A2     0.924416     9A1     0.925089    10A1     1.150367
       5B2     1.369247     5B1     1.389500    11A1     1.621453
       6B2     1.857200     6B1     1.873076    12A1     1.922745
       2A2     1.922761    13A1     2.052792    14A1     2.629654
       7B2     2.635827     7B1     2.645990     8B2     2.937562
       8B1     2.937578    15A1     3.099867     3A2     3.169771
      16A1     3.170369     9B2     3.365242     9B1     3.380218
      17A1     3.506824     4A2     3.510150    18A1     3.527866
      10B2     4.346070    10B1     4.360975    11B2     4.558187
      11B1     4.570480    19A1     4.792059    12B2     5.579958
      12B1     5.579961    20A1     6.174551     5A2     6.496412
      21A1     6.496477    22A1     6.864559     6A2     6.864674
      13B2     6.925697    13B1     6.935628    23A1     6.987416
      24A1     8.029448    14B2     8.206796    14B1     8.216456
      25A1    10.561571    26A1    18.287409

    Final Occupation by Irrep:
             A1    A2    B1    B2
    DOCC [     5,    0,    1,    1 ]
    SOCC [     0,    0,    1,    0 ]
    NA   [     5,    0,    2,    1 ]
    NB   [     5,    0,    1,    1 ]

  @DF-UKS Final Energy:  -111.68637198685207

   => Energetics <=

    Nuclear Repulsion Energy =             37.0203390822928213
    One-Electron Energy =                -227.0033746961878762
    Two-Electron Energy =                  90.3834327271995477
    DFT Exchange-Correlation Energy =     -12.0867691001565571
    Empirical Dispersion Energy =           0.0000000000000000
    VV10 Nonlocal Energy =                  0.0000000000000000
    Total Energy =                       -111.6863719868520661

  UHF NO Occupations:
  HONO-2 :    1 B1 1.9999424
  HONO-1 :    5 A1 1.9993257
  HONO-0 :    2 B1 1.0000000
  LUNO+0 :    6 A1 0.0006743
  LUNO+1 :    3 B1 0.0000576
  LUNO+2 :    7 A1 0.0000127
  LUNO+3 :    2 B2 0.0000041

Computation Completed

Properties will be evaluated at   0.000000,   0.000000,   0.000000 [a0]

Properties computed using the B3LYP density matrix

 Multipole Moments:

 ------------------------------------------------------------------------------------
     Multipole            Electronic (a.u.)      Nuclear  (a.u.)        Total (a.u.)
 ------------------------------------------------------------------------------------

 L = 1.  Multiply by 2.5417464519 to convert [e a0] to [Debye]
 Dipole X            :          0.0000000            0.0000000            0.0000000
 Dipole Y            :          0.0000000            0.0000000            0.0000000
 Dipole Z            :         -1.7401236           -0.0014132           -1.7415368
 Magnitude           :                                                    1.7415368

 L = 2.  Multiply by 1.3450342976 to convert [e a0^2] to [Debye ang]
 Quadrupole XX       :        -14.1892072            0.0000000          -14.1892072
 Quadrupole XY       :          0.0000000            0.0000000            0.0000000
 Quadrupole XZ       :          0.0000000            0.0000000            0.0000000
 Quadrupole YY       :         -9.3349116            0.0000000           -9.3349116
 Quadrupole YZ       :          0.0000000            0.0000000            0.0000000
 Quadrupole ZZ       :        -18.3183286            5.7638796          -12.5544490
 Traceless XX        :         -0.2417247           -1.9212932           -2.1630180
 Traceless YY        :          4.6125709           -1.9212932            2.6912777
 Traceless ZZ        :         -4.3708461            3.8425864           -0.5282597

 ------------------------------------------------------------------------------------
  ==> Computing MBIS Charges <==

  Electron Count from Grid (Expected Number): 15.00000 (15.00000)
  Difference: -0.00000

  MBIS Charges: (a.u.)
   Center  Symbol  Z      Pop.       Charge
      1       O    8    7.663151    0.336849
      2       C    6    7.336849   -1.336849

  MBIS Dipoles: [e a0]
   Center  Symbol  Z        X           Y           Z
      1       O    8    0.000000   -0.000000   -0.097849
      2       C    6    0.000000   -0.000000   -0.466130

  MBIS Quadrupoles: [e a0^2]
   Center  Symbol  Z      XX        XY        XZ        YY        YZ        ZZ
      1       O    8   -2.4490   -0.0000    0.0000   -2.3429    0.0000   -2.8388
      2       C    6   -11.7402    0.0000    0.0000   -6.9920    0.0000   -8.5042

  MBIS Octupoles: [e a0^3]
   Center  Symbol  Z      XXX       XXY       XXZ       XYY       XYZ       XZZ       YYY       YYZ       YZZ       ZZZ
      1       O    8   -0.0000   -0.0000   -0.0505    0.0000   -0.0000    0.0000   -0.0000    0.0105   -0.0000    0.1882
      2       C    6    0.0000    0.0000   -3.7582   -0.0000    0.0000    0.0000    0.0000   -1.3133    0.0000   -1.7981

  MBIS Radial Moments:
   Center  Symbol  Z      [a0^2]      [a0^3]      [a0^4]
      1       O    8    7.630743   11.842739   22.229930
      2       C    6   27.236365   86.319014   316.769766

  MBIS Valence Widths: [a0]
   Center  Symbol  Z     Width
      1       O    8    0.323185
      2       C    6    0.639803

*** tstop() called on Mac.lan at Sun Aug 10 17:42:23 2025
Module time:
	user time   =       3.94 seconds =       0.07 minutes
	system time =       2.61 seconds =       0.04 minutes
	total time  =          0 seconds =       0.00 minutes
Total time:
	user time   =      18.12 seconds =       0.30 minutes
	system time =       4.64 seconds =       0.08 minutes
	total time  =          2 seconds =       0.03 minutes

    Psi4 stopped on: Sunday, 10 August 2025 05:42PM
    Psi4 wall time for execution: 0:00:02.20

*** Psi4 exiting successfully. Buy a developer a beer!
