                               Psi4 1.9.1 release

  ==> Input File <==

--------------------------------------------------------------------------
molecule {
-1 2
O           0.000000           0.000000           0.000000
C           0.000000           0.000000           0.628738
}

set {
basis              cc-pvtz
reference          uks
maxiter            500
DAMPING_PERCENTAGE 1
E_CONVERGENCE      1.0E-8
D_CONVERGENCE      1.0E-8
DIIS_MAX_VECS      400
MBIS_MAXITER       8000
guess              read
}

E, wfn = energy('b3lyp', restart_file='last_wfn', return_wfn=True)
properties('b3lyp','MBIS_CHARGES', wfn=wfn)
wfn.to_file('last_wfn')
--------------------------------------------------------------------------

    Molecular point group: c2v
  Charge       = -1
  Multiplicity = 2
  Basis Set: CC-PVTZ
    Blend: CC-PVTZ
  Basis Set: (CC-PVTZ AUX)
    Blend: CC-PVTZ-JKFIT
  @DF-UKS Final Energy:  -110.90261461243448
    Total Energy =                       -110.9026146124344763
 Dipole X            :          0.0000000            0.0000000            0.0000000
 Dipole Y            :          0.0000000            0.0000000            0.0000000
 Dipole Z            :         -1.7505764           -0.0012950           -1.7518714
 Magnitude           :                                                    1.7518714
    Molecular point group: c2v

    Geometry (in Angstrom), charge = -1, multiplicity = 2:

       Center              X                  Y                   Z               Mass
    ------------   -----------------  -----------------  -----------------  -----------------
         O            0.000000000000     0.000000000000    -0.269508091113    15.994914619570
         C            0.000000000000     0.000000000000     0.359229908887    12.000000000000

  Charge       = -1
  Multiplicity = 2
  Basis Set: CC-PVTZ
    Blend: CC-PVTZ
  Basis Set: (CC-PVTZ AUX)
    Blend: CC-PVTZ-JKFIT

    Orbital Energies [Eh]
    ---------------------

    Alpha Occupied:

       1A1   -18.951376     2A1   -10.000192     3A1    -0.962101
       1B2    -0.495025     1B1    -0.493793     4A1    -0.268115
       5A1    -0.035128     2B1     0.307319

    Alpha Virtual:

       2B2     0.368206     6A1     0.381563     7A1     0.529566
       3B2     0.602460     3B1     0.611392     8A1     0.794686
       4B1     0.883147     4B2     0.883310     1A2     0.900959
       9A1     0.903393    10A1     1.151183     5B2     1.411931
       5B1     1.414463    11A1     1.647406     6B2     1.825451
       6B1     1.832542     2A2     1.925014    12A1     1.926370
      13A1     2.042996    14A1     2.627281     7B2     2.707822
       7B1     2.711930     8B1     2.925351     8B2     2.925410
       3A2     3.144400    15A1     3.144615    16A1     3.160673
       9B2     3.376301     9B1     3.382105    17A1     3.569132
       4A2     3.570731    18A1     3.584517    10B2     4.381360
      10B1     4.385172    11B2     4.714496    11B1     4.718647
      19A1     4.904117    12B1     5.635019    12B2     5.635029
      20A1     6.286029     5A2     6.446265    21A1     6.446647
      13B2     7.026508    13B1     7.029896     6A2     7.088764
      22A1     7.088907    23A1     7.186183    14B2     8.523892
      14B1     8.525266    24A1     8.551523    25A1    10.533903
      26A1    19.167605

    Beta Occupied:

       1A1   -18.947898     2A1   -10.001294     3A1    -0.957274
       1B2    -0.493705     1B1    -0.481620     4A1    -0.265120
       5A1    -0.027107

    Beta Virtual:

       2B2     0.381486     6A1     0.393506     2B1     0.407306
       7A1     0.546295     3B2     0.599338     3B1     0.611290
       8A1     0.802078     4B2     0.885201     4B1     0.900845
       1A2     0.918676     9A1     0.919503    10A1     1.157128
       5B2     1.413020     5B1     1.432219    11A1     1.649632
       6B2     1.824752     6B1     1.839765    12A1     1.935436
       2A2     1.935504    13A1     2.046954    14A1     2.631364
       7B2     2.707338     7B1     2.716550     8B2     2.929386
       8B1     2.929399    15A1     3.145017     3A2     3.147680
      16A1     3.163008     9B2     3.373713     9B1     3.387542
      17A1     3.569048     4A2     3.572877    18A1     3.586201
      10B2     4.382694    10B1     4.396212    11B2     4.713943
      11B1     4.725105    19A1     4.907672    12B2     5.639744
      12B1     5.639746    20A1     6.287447     5A2     6.455644
      21A1     6.455762    13B2     7.026992    13B1     7.035549
      22A1     7.093060     6A2     7.093195    23A1     7.188386
      14B2     8.524736    14B1     8.532684    24A1     8.552775
      25A1    10.537816    26A1    19.171163

    Final Occupation by Irrep:
             A1    A2    B1    B2
    DOCC [     5,    0,    1,    1 ]
    SOCC [     0,    0,    1,    0 ]
    NA   [     5,    0,    2,    1 ]
    NB   [     5,    0,    1,    1 ]

  @DF-UKS Final Energy:  -110.90261461243196

   => Energetics <=

    Nuclear Repulsion Energy =             40.3991903020972174
    One-Electron Energy =                -231.7640616360380363
    Two-Electron Energy =                  92.6884341929044382
    DFT Exchange-Correlation Energy =     -12.2261774713955855
    Empirical Dispersion Energy =           0.0000000000000000
    VV10 Nonlocal Energy =                  0.0000000000000000
    Total Energy =                       -110.9026146124319609

  UHF NO Occupations:
  HONO-2 :    1 B1 1.9999678
  HONO-1 :    5 A1 1.9992694
  HONO-0 :    2 B1 1.0000000
  LUNO+0 :    6 A1 0.0007306
  LUNO+1 :    3 B1 0.0000322
  LUNO+2 :    7 A1 0.0000087
  LUNO+3 :    2 B2 0.0000028

Computation Completed

Properties will be evaluated at   0.000000,   0.000000,   0.000000 [a0]

Properties computed using the B3LYP density matrix

 Multipole Moments:

 ------------------------------------------------------------------------------------
     Multipole            Electronic (a.u.)      Nuclear  (a.u.)        Total (a.u.)
 ------------------------------------------------------------------------------------

 L = 1.  Multiply by 2.5417464519 to convert [e a0] to [Debye]
 Dipole X            :          0.0000000            0.0000000            0.0000000
 Dipole Y            :          0.0000000            0.0000000            0.0000000
 Dipole Z            :         -1.7505764           -0.0012950           -1.7518714
 Magnitude           :                                                    1.7518714

 L = 2.  Multiply by 1.3450342976 to convert [e a0^2] to [Debye ang]
 Quadrupole XX       :        -14.4104798            0.0000000          -14.4104798
 Quadrupole XY       :          0.0000000            0.0000000            0.0000000
 Quadrupole XZ       :          0.0000000            0.0000000            0.0000000
 Quadrupole YY       :         -9.2466356            0.0000000           -9.2466356
 Quadrupole YZ       :          0.0000000            0.0000000            0.0000000
 Quadrupole ZZ       :        -17.1929674            4.8400558          -12.3529116
 Traceless XX        :         -0.7937855           -1.6133519           -2.4071375
 Traceless YY        :          4.3700587           -1.6133519            2.7567068
 Traceless ZZ        :         -3.5762731            3.2267038           -0.3495693

 ------------------------------------------------------------------------------------
  ==> Computing MBIS Charges <==

  Electron Count from Grid (Expected Number): 15.00000 (15.00000)
  Difference: -0.00000

  MBIS Charges: (a.u.)
   Center  Symbol  Z      Pop.       Charge
      1       O    8    7.624431    0.375569
      2       C    6    7.375567   -1.375567

  MBIS Dipoles: [e a0]
   Center  Symbol  Z        X           Y           Z
      1       O    8    0.000000    0.000000   -0.125924
      2       C    6    0.000000    0.000000   -0.500875

  MBIS Quadrupoles: [e a0^2]
   Center  Symbol  Z      XX        XY        XZ        YY        YZ        ZZ
      1       O    8   -2.3014   -0.0000    0.0000   -2.2087   -0.0000   -2.6796
      2       C    6   -12.1091    0.0000    0.0000   -7.0379    0.0000   -8.5850

  MBIS Octupoles: [e a0^3]
   Center  Symbol  Z      XXX       XXY       XXZ       XYY       XYZ       XZZ       YYY       YYZ       YZZ       ZZZ
      1       O    8   -0.0000   -0.0000   -0.0599   -0.0000    0.0000    0.0000   -0.0000   -0.0088    0.0000    0.1752
      2       C    6    0.0000    0.0000   -3.8562    0.0000    0.0000    0.0000    0.0000   -1.4454    0.0000   -2.1543

  MBIS Radial Moments:
   Center  Symbol  Z      [a0^2]      [a0^3]      [a0^4]
      1       O    8    7.189750   10.829125   19.724727
      2       C    6   27.732019   88.923667   329.865573

  MBIS Valence Widths: [a0]
   Center  Symbol  Z     Width
      1       O    8    0.314136
      2       C    6    0.644271

*** tstop() called on Mac.lan at Sun Aug 10 17:42:29 2025
Module time:
	user time   =       3.93 seconds =       0.07 minutes
	system time =       2.77 seconds =       0.05 minutes
	total time  =          1 seconds =       0.02 minutes
Total time:
	user time   =      18.02 seconds =       0.30 minutes
	system time =       4.86 seconds =       0.08 minutes
	total time  =          2 seconds =       0.03 minutes

    Psi4 stopped on: Sunday, 10 August 2025 05:42PM
    Psi4 wall time for execution: 0:00:02.21

*** Psi4 exiting successfully. Buy a developer a beer!
