                               Psi4 1.9.1 release

  ==> Input File <==

--------------------------------------------------------------------------
molecule {
-1 2
H           0.000000           0.000000           0.000000
H           0.000000           0.000000           1.499741
}

set {
basis              cc-pvtz
reference          uks
maxiter            500
DAMPING_PERCENTAGE 1
E_CONVERGENCE      1.0E-8
D_CONVERGENCE      1.0E-8
DIIS_MAX_VECS      400
MBIS_MAXITER       8000
guess              read
}

E, wfn = energy('b3lyp', restart_file='last_wfn', return_wfn=True)
properties('b3lyp','MBIS_CHARGES', wfn=wfn)
wfn.to_file('last_wfn')
--------------------------------------------------------------------------

    Molecular point group: d2h
  Charge       = -1
  Multiplicity = 2
  Basis Set: CC-PVTZ
    Blend: CC-PVTZ
  Basis Set: (CC-PVTZ AUX)
    Blend: CC-PVTZ-JKFIT
  @DF-UKS Final Energy:    -1.05719426766009
    Total Energy =                         -1.0571942676600901
 Dipole X            :          0.0000000            0.0000000            0.0000000
 Dipole Y            :          0.0000000            0.0000000            0.0000000
 Dipole Z            :          0.0000000            0.0000000            0.0000000
 Magnitude           :                                                    0.0000000
    Molecular point group: d2h

    Geometry (in Angstrom), charge = -1, multiplicity = 2:

       Center              X                  Y                   Z               Mass
    ------------   -----------------  -----------------  -----------------  -----------------
         H            0.000000000000     0.000000000000    -0.749870500000     1.007825032230
         H            0.000000000000     0.000000000000     0.749870500000     1.007825032230

  Charge       = -1
  Multiplicity = 2
  Basis Set: CC-PVTZ
    Blend: CC-PVTZ
  Basis Set: (CC-PVTZ AUX)
    Blend: CC-PVTZ-JKFIT

    Orbital Energies [Eh]
    ---------------------

    Alpha Occupied:

       1Ag    -0.039400     1B1u    0.117752

    Alpha Virtual:

       2Ag     0.497328     2B1u    0.543562     1B2u    0.803071
       1B3u    0.803071     3Ag     0.929108     1B2g    1.043282
       1B3g    1.043282     3B1u    1.425834     4Ag     2.515581
       4B1u    2.679606     5Ag     3.187081     2B2u    3.225489
       2B3u    3.225489     1B1g    3.448474     6Ag     3.448475
       1Au     3.572300     5B1u    3.572302     2B2g    3.825535
       2B3g    3.825535     3B3u    3.891016     3B2u    3.891016
       6B1u    4.014369     3B3g    4.116450     3B2g    4.116450
       7Ag     4.269675     7B1u    5.095780

    Beta Occupied:

       1Ag     0.014127

    Beta Virtual:

       1B1u    0.228368     2Ag     0.520777     2B1u    0.594074
       1B2u    0.827725     1B3u    0.827725     3Ag     0.968995
       1B2g    1.085422     1B3g    1.085422     3B1u    1.469995
       4Ag     2.586973     4B1u    2.746135     5Ag     3.216165
       2B2u    3.264735     2B3u    3.264735     1B1g    3.491990
       6Ag     3.491991     1Au     3.617569     5B1u    3.617570
       2B2g    3.868507     2B3g    3.868507     3B3u    3.949758
       3B2u    3.949758     6B1u    4.070843     3B3g    4.177009
       3B2g    4.177009     7Ag     4.328646     7B1u    5.142338

    Final Occupation by Irrep:
             Ag   B1g   B2g   B3g    Au   B1u   B2u   B3u
    DOCC [     1,    0,    0,    0,    0,    0,    0,    0 ]
    SOCC [     0,    0,    0,    0,    0,    1,    0,    0 ]
    NA   [     1,    0,    0,    0,    0,    1,    0,    0 ]
    NB   [     1,    0,    0,    0,    0,    0,    0,    0 ]

  @DF-UKS Final Energy:    -1.05719427394602

   => Energetics <=

    Nuclear Repulsion Energy =              0.3528457318096925
    One-Electron Energy =                  -2.4267479997175254
    Two-Electron Energy =                   1.6856596264558803
    DFT Exchange-Correlation Energy =      -0.6689516324940640
    Empirical Dispersion Energy =           0.0000000000000000
    VV10 Nonlocal Energy =                  0.0000000000000000
    Total Energy =                         -1.0571942739460169

  UHF NO Occupations:
  HONO-1 :    1 Ag 1.9979844
  HONO-0 :    1B1u 1.0000000
  LUNO+0 :    2 Ag 0.0020156
  LUNO+1 :    3 Ag 0.0000000
  LUNO+2 :    4 Ag 0.0000000
  LUNO+3 :    2B1u 0.0000000

Computation Completed

Properties will be evaluated at   0.000000,   0.000000,   0.000000 [a0]

Properties computed using the B3LYP density matrix

 Multipole Moments:

 ------------------------------------------------------------------------------------
     Multipole            Electronic (a.u.)      Nuclear  (a.u.)        Total (a.u.)
 ------------------------------------------------------------------------------------

 L = 1.  Multiply by 2.5417464519 to convert [e a0] to [Debye]
 Dipole X            :          0.0000000            0.0000000            0.0000000
 Dipole Y            :          0.0000000            0.0000000            0.0000000
 Dipole Z            :          0.0000000            0.0000000            0.0000000
 Magnitude           :                                                    0.0000000

 L = 2.  Multiply by 1.3450342976 to convert [e a0^2] to [Debye ang]
 Quadrupole XX       :         -4.3656436            0.0000000           -4.3656436
 Quadrupole XY       :          0.0000000            0.0000000            0.0000000
 Quadrupole XZ       :          0.0000000            0.0000000            0.0000000
 Quadrupole YY       :         -4.3656436            0.0000000           -4.3656436
 Quadrupole YZ       :          0.0000000            0.0000000            0.0000000
 Quadrupole ZZ       :        -11.8070949            4.0160607           -7.7910342
 Traceless XX        :          2.4804838           -1.3386869            1.1417969
 Traceless YY        :          2.4804838           -1.3386869            1.1417969
 Traceless ZZ        :         -4.9609675            2.6773738           -2.2835937

 ------------------------------------------------------------------------------------
  ==> Computing MBIS Charges <==

  Electron Count from Grid (Expected Number):  3.00000 ( 3.00000)
  Difference:  0.00000

  MBIS Charges: (a.u.)
   Center  Symbol  Z      Pop.       Charge
      1       H    1    1.500000   -0.500000
      2       H    1    1.500000   -0.500000

  MBIS Dipoles: [e a0]
   Center  Symbol  Z        X           Y           Z
      1       H    1    0.000000    0.000000    0.165908
      2       H    1   -0.000000    0.000000   -0.165908

  MBIS Quadrupoles: [e a0^2]
   Center  Symbol  Z      XX        XY        XZ        YY        YZ        ZZ
      1       H    1   -2.1828   -0.0000    0.0000   -2.1828    0.0000   -2.4213
      2       H    1   -2.1828   -0.0000   -0.0000   -2.1828   -0.0000   -2.4213

  MBIS Octupoles: [e a0^3]
   Center  Symbol  Z      XXX       XXY       XXZ       XYY       XYZ       XZZ       YYY       YYZ       YZZ       ZZZ
      1       H    1   -0.0000   -0.0000    0.3377   -0.0000    0.0000   -0.0000   -0.0000    0.3377    0.0000    0.5671
      2       H    1   -0.0000    0.0000   -0.3377    0.0000   -0.0000   -0.0000   -0.0000   -0.3377    0.0000   -0.5671

  MBIS Radial Moments:
   Center  Symbol  Z      [a0^2]      [a0^3]      [a0^4]
      1       H    1    6.786946   20.413249   71.414034
      2       H    1    6.786946   20.413249   71.414034

  MBIS Valence Widths: [a0]
   Center  Symbol  Z     Width
      1       H    1    0.613955
      2       H    1    0.613955

*** tstop() called on Mac.lan at Sun Aug 10 17:26:30 2025
Module time:
	user time   =       0.62 seconds =       0.01 minutes
	system time =       1.12 seconds =       0.02 minutes
	total time  =          0 seconds =       0.00 minutes
Total time:
	user time   =       1.67 seconds =       0.03 minutes
	system time =       3.19 seconds =       0.05 minutes
	total time  =          1 seconds =       0.02 minutes

    Psi4 stopped on: Sunday, 10 August 2025 05:26PM
    Psi4 wall time for execution: 0:00:00.76

*** Psi4 exiting successfully. Buy a developer a beer!
