                               Psi4 1.9.1 release

  ==> Input File <==

--------------------------------------------------------------------------
molecule {
-1 2
C           0.000000           0.000000           0.000000
C           0.000000           0.000000           1.589876
}

set {
basis              cc-pvtz
reference          uks
maxiter            500
DAMPING_PERCENTAGE 1
E_CONVERGENCE      1.0E-8
D_CONVERGENCE      1.0E-8
DIIS_MAX_VECS      400
MBIS_MAXITER       8000
guess              read
}

E, wfn = energy('b3lyp', restart_file='last_wfn', return_wfn=True)
properties('b3lyp','MBIS_CHARGES', wfn=wfn)
wfn.to_file('last_wfn')
--------------------------------------------------------------------------

    Molecular point group: d2h
  Charge       = -1
  Multiplicity = 2
  Basis Set: CC-PVTZ
    Blend: CC-PVTZ
  Basis Set: (CC-PVTZ AUX)
    Blend: CC-PVTZ-JKFIT
  @DF-UKS Final Energy:   -75.97581533420401
    Total Energy =                        -75.9758153342040146
 Dipole X            :          0.0000000            0.0000000            0.0000000
 Dipole Y            :          0.0000000            0.0000000            0.0000000
 Dipole Z            :          0.0000000           -0.0000000           -0.0000000
 Magnitude           :                                                    0.0000000
    Molecular point group: d2h

    Geometry (in Angstrom), charge = -1, multiplicity = 2:

       Center              X                  Y                   Z               Mass
    ------------   -----------------  -----------------  -----------------  -----------------
         C            0.000000000000     0.000000000000    -0.794938000000    12.000000000000
         C            0.000000000000     0.000000000000     0.794938000000    12.000000000000

  Charge       = -1
  Multiplicity = 2
  Basis Set: CC-PVTZ
    Blend: CC-PVTZ
  Basis Set: (CC-PVTZ AUX)
    Blend: CC-PVTZ-JKFIT

    Orbital Energies [Eh]
    ---------------------

    Alpha Occupied:

       1Ag    -9.988308     1B1u   -9.988062     2Ag    -0.403499
       2B1u   -0.180395     3Ag    -0.043074     1B2u    0.010739
       1B3u    0.010739

    Alpha Virtual:

       1B3g    0.211665     1B2g    0.211665     3B1u    0.367367
       4Ag     0.514930     2B3u    0.540165     2B2u    0.540165
       4B1u    0.575668     2B2g    0.599478     2B3g    0.599478
       5Ag     0.608211     1B1g    0.861386     6Ag     0.861386
       5B1u    0.871211     3B3u    0.933513     3B2u    0.933513
       1Au     1.079681     6B1u    1.079681     3B3g    1.351236
       3B2g    1.351236     7Ag     1.364178     7B1u    1.367167
       4B3u    2.192395     4B2u    2.192395     8Ag     2.271641
       4B2g    2.346996     4B3g    2.346996     2B1g    2.704661
       9Ag     2.704662     5B2u    2.707855     5B3u    2.707855
      10Ag     2.805606     8B1u    2.808700     6B2u    2.891092
       6B3u    2.891092     5B3g    3.048415     5B2g    3.048415
      11Ag     3.213937     3B1g    3.213938     9B1u    3.222879
      10B1u    3.261557     2Au     3.261558     6B2g    3.360838
       6B3g    3.360838     3Au     3.437729    11B1u    3.437729
       7B3u    3.456883     7B2u    3.456883    12B1u    3.781045
      12Ag     4.004353     7B3g    4.170199     7B2g    4.170199
      13Ag     4.186144    13B1u    7.243499

    Beta Occupied:

       1Ag    -9.980607     1B1u   -9.980459     2Ag    -0.372112
       2B1u   -0.127031     1B2u    0.018049     1B3u    0.018049

    Beta Virtual:

       3Ag     0.088597     1B3g    0.222252     1B2g    0.222252
       3B1u    0.378915     4Ag     0.543494     2B3u    0.544113
       2B2u    0.544113     2B2g    0.603689     2B3g    0.603689
       5Ag     0.623068     4B1u    0.632184     1B1g    0.862772
       6Ag     0.862772     5B1u    0.880720     3B3u    0.957752
       3B2u    0.957752     1Au     1.082797     6B1u    1.082797
       3B3g    1.372223     3B2g    1.372223     7Ag     1.395298
       7B1u    1.402452     4B3u    2.200730     4B2u    2.200730
       8Ag     2.310715     4B2g    2.351137     4B3g    2.351137
       2B1g    2.724941     9Ag     2.724942     5B2u    2.737001
       5B3u    2.737001     8B1u    2.840342    10Ag     2.855926
       6B2u    2.891475     6B3u    2.891475     5B2g    3.048448
       5B3g    3.048448    11Ag     3.216967     3B1g    3.216969
       9B1u    3.260841     2Au     3.260843    10B1u    3.267740
       6B2g    3.401020     6B3g    3.401020     3Au     3.459032
      11B1u    3.459032     7B3u    3.496743     7B2u    3.496743
      12B1u    3.828858    12Ag     4.050515     7B3g    4.200790
       7B2g    4.200790    13Ag     4.205284    13B1u    7.262896

    Final Occupation by Irrep:
             Ag   B1g   B2g   B3g    Au   B1u   B2u   B3u
    DOCC [     2,    0,    0,    0,    0,    2,    1,    1 ]
    SOCC [     1,    0,    0,    0,    0,    0,    0,    0 ]
    NA   [     3,    0,    0,    0,    0,    2,    1,    1 ]
    NB   [     2,    0,    0,    0,    0,    2,    1,    1 ]

  @DF-UKS Final Energy:   -75.97581533433809

   => Energetics <=

    Nuclear Repulsion Energy =             11.9823052767134026
    One-Electron Energy =                -128.6747842301158471
    Two-Electron Energy =                  49.3596169903323698
    DFT Exchange-Correlation Energy =      -8.6429533712680175
    Empirical Dispersion Energy =           0.0000000000000000
    VV10 Nonlocal Energy =                  0.0000000000000000
    Total Energy =                        -75.9758153343380940

  UHF NO Occupations:
  HONO-2 :    2 Ag 1.9996158
  HONO-1 :    2B1u 1.9975024
  HONO-0 :    3 Ag 1.0000000
  LUNO+0 :    3B1u 0.0024976
  LUNO+1 :    4 Ag 0.0003842
  LUNO+2 :    2B2u 0.0001089
  LUNO+3 :    2B3u 0.0001089

Computation Completed

Properties will be evaluated at   0.000000,   0.000000,   0.000000 [a0]

Properties computed using the B3LYP density matrix

 Multipole Moments:

 ------------------------------------------------------------------------------------
     Multipole            Electronic (a.u.)      Nuclear  (a.u.)        Total (a.u.)
 ------------------------------------------------------------------------------------

 L = 1.  Multiply by 2.5417464519 to convert [e a0] to [Debye]
 Dipole X            :          0.0000000            0.0000000            0.0000000
 Dipole Y            :          0.0000000            0.0000000            0.0000000
 Dipole Z            :          0.0000000           -0.0000000           -0.0000000
 Magnitude           :                                                    0.0000000

 L = 2.  Multiply by 1.3450342976 to convert [e a0^2] to [Debye ang]
 Quadrupole XX       :        -12.3559988            0.0000000          -12.3559988
 Quadrupole XY       :          0.0000000            0.0000000            0.0000000
 Quadrupole XZ       :          0.0000000            0.0000000            0.0000000
 Quadrupole YY       :        -12.3559988            0.0000000          -12.3559988
 Quadrupole YZ       :          0.0000000            0.0000000            0.0000000
 Quadrupole ZZ       :        -40.8357703           27.0798027          -13.7559675
 Traceless XX        :          9.4932572           -9.0266009            0.4666563
 Traceless YY        :          9.4932572           -9.0266009            0.4666563
 Traceless ZZ        :        -18.9865143           18.0532018           -0.9333125

 ------------------------------------------------------------------------------------
  ==> Computing MBIS Charges <==

  Electron Count from Grid (Expected Number): 13.00000 (13.00000)
  Difference:  0.00000

  MBIS Charges: (a.u.)
   Center  Symbol  Z      Pop.       Charge
      1       C    6    6.500000   -0.500000
      2       C    6    6.500000   -0.500000

  MBIS Dipoles: [e a0]
   Center  Symbol  Z        X           Y           Z
      1       C    6   -0.000000    0.000000   -0.129037
      2       C    6   -0.000000    0.000000    0.129037

  MBIS Quadrupoles: [e a0^2]
   Center  Symbol  Z      XX        XY        XZ        YY        YZ        ZZ
      1       C    6   -6.1780    0.0000   -0.0000   -6.1780   -0.0000   -6.1373
      2       C    6   -6.1780    0.0000    0.0000   -6.1780    0.0000   -6.1373

  MBIS Octupoles: [e a0^3]
   Center  Symbol  Z      XXX       XXY       XXZ       XYY       XYZ       XZZ       YYY       YYZ       YZZ       ZZZ
      1       C    6   -0.0000   -0.0000   -0.5073   -0.0000    0.0000   -0.0000    0.0000   -0.5073    0.0000   -1.1063
      2       C    6   -0.0000   -0.0000    0.5073   -0.0000    0.0000   -0.0000    0.0000    0.5073    0.0000    1.1063

  MBIS Radial Moments:
   Center  Symbol  Z      [a0^2]      [a0^3]      [a0^4]
      1       C    6   18.493341   50.445826   162.491259
      2       C    6   18.493341   50.445826   162.491259

  MBIS Valence Widths: [a0]
   Center  Symbol  Z     Width
      1       C    6    0.572030
      2       C    6    0.572030

*** tstop() called on Mac.lan at Sun Aug 10 17:31:30 2025
Module time:
	user time   =       4.37 seconds =       0.07 minutes
	system time =       2.12 seconds =       0.04 minutes
	total time  =          1 seconds =       0.02 minutes
Total time:
	user time   =      17.82 seconds =       0.30 minutes
	system time =       4.28 seconds =       0.07 minutes
	total time  =          2 seconds =       0.03 minutes

    Psi4 stopped on: Sunday, 10 August 2025 05:31PM
    Psi4 wall time for execution: 0:00:02.15

*** Psi4 exiting successfully. Buy a developer a beer!
