                               Psi4 1.9.1 release

  ==> Input File <==

--------------------------------------------------------------------------
molecule {
-1 2
O           0.000000           0.000000           0.000000
O           0.000000           0.000000           1.457245
}

set {
basis              cc-pvtz
reference          uks
maxiter            500
DAMPING_PERCENTAGE 1
E_CONVERGENCE      1.0E-8
D_CONVERGENCE      1.0E-8
DIIS_MAX_VECS      400
MBIS_MAXITER       8000
guess              read
}

E, wfn = energy('b3lyp', restart_file='last_wfn', return_wfn=True)
properties('b3lyp','MBIS_CHARGES', wfn=wfn)
wfn.to_file('last_wfn')
--------------------------------------------------------------------------

    Molecular point group: d2h
  Charge       = -1
  Multiplicity = 2
  Basis Set: CC-PVTZ
    Blend: CC-PVTZ
  Basis Set: (CC-PVTZ AUX)
    Blend: CC-PVTZ-JKFIT
  @DF-UKS Final Energy:  -150.37119868775775
    Total Energy =                       -150.3711986877577544
 Dipole X            :          0.0000000            0.0000000            0.0000000
 Dipole Y            :          0.0000000            0.0000000            0.0000000
 Dipole Z            :          0.0000000            0.0000000            0.0000000
 Magnitude           :                                                    0.0000000
    Molecular point group: d2h

    Geometry (in Angstrom), charge = -1, multiplicity = 2:

       Center              X                  Y                   Z               Mass
    ------------   -----------------  -----------------  -----------------  -----------------
         O            0.000000000000     0.000000000000    -0.728622500000    15.994914619570
         O            0.000000000000     0.000000000000     0.728622500000    15.994914619570

  Charge       = -1
  Multiplicity = 2
  Basis Set: CC-PVTZ
    Blend: CC-PVTZ
  Basis Set: (CC-PVTZ AUX)
    Blend: CC-PVTZ-JKFIT

    Orbital Energies [Eh]
    ---------------------

    Alpha Occupied:

       1Ag   -18.847497     1B1u  -18.847445     2Ag    -0.729620
       2B1u   -0.481340     3Ag    -0.107765     1B2u   -0.102978
       1B3u   -0.064555     1B3g    0.038197     1B2g    0.080433

    Alpha Virtual:

       3B1u    0.354201     4B1u    0.785644     2B2u    0.835775
       2B3u    0.858834     4Ag     0.891464     2B3g    0.920413
       2B2g    0.940853     5Ag     1.047334     5B1u    1.504900
       3B2u    1.572265     3B3u    1.595264     1B1g    1.660290
       6Ag     1.660305     1Au     1.905345     6B1u    1.905647
       7Ag     2.134537     3B3g    2.340556     3B2g    2.366205
       7B1u    2.587611     4B2u    3.784580     8Ag     3.787586
       4B3u    3.819032     4B3g    3.972938     4B2g    4.009894
       8B1u    4.681831     5B2u    5.026640     5B3u    5.055696
       9Ag     5.128661     2B1g    5.194316    10Ag     5.198920
       6B2u    5.407019     6B3u    5.407061     5B3g    5.470531
       5B2g    5.470548     2Au     5.680299     9B1u    5.680432
       6B3g    6.126537     6B2g    6.156811    10B1u    6.421321
      11Ag     6.436555     3B1g    6.436712     7B2u    6.530915
       7B3u    6.565191     3Au     6.586975    11B1u    6.587508
      12Ag     6.921431     7B3g    7.131126     7B2g    7.163019
      12B1u    7.363616    13Ag     7.803699    13B1u    9.066609

    Beta Occupied:

       1Ag   -18.833313     1B1u  -18.833224     2Ag    -0.697339
       2B1u   -0.438123     3Ag    -0.092932     1B3u   -0.052785
       1B2u   -0.015496     1B2g    0.095053

    Beta Virtual:

       1B3g    0.202461     3B1u    0.372212     4B1u    0.793453
       2B3u    0.864573     2B2u    0.874884     4Ag     0.898887
       2B2g    0.946515     2B3g    0.959088     5Ag     1.057387
       5B1u    1.521912     3B2u    1.595207     3B3u    1.596586
       1B1g    1.682713     6Ag     1.683952     1Au     1.933696
       6B1u    1.935164     7Ag     2.149376     3B2g    2.369795
       3B3g    2.371555     7B1u    2.597904     8Ag     3.796670
       4B3u    3.829372     4B2u    3.845316     4B2g    4.021385
       4B3g    4.036512     8B1u    4.698288     5B2u    5.058219
       5B3u    5.060105     9Ag     5.150664     2B1g    5.216683
      10Ag     5.217998     6B3u    5.442110     6B2u    5.442399
       5B2g    5.506437     5B3g    5.506728     2Au     5.704864
       9B1u    5.706299     6B2g    6.162239     6B3g    6.166309
      10B1u    6.437406     3B1g    6.487566    11Ag     6.491135
       7B3u    6.572279     7B2u    6.583625     3Au     6.636832
      11B1u    6.640359    12Ag     6.933559     7B2g    7.168187
       7B3g    7.174569    12B1u    7.383719    13Ag     7.833599
      13B1u    9.085972

    Final Occupation by Irrep:
             Ag   B1g   B2g   B3g    Au   B1u   B2u   B3u
    DOCC [     3,    0,    1,    0,    0,    2,    1,    1 ]
    SOCC [     0,    0,    0,    1,    0,    0,    0,    0 ]
    NA   [     3,    0,    1,    1,    0,    2,    1,    1 ]
    NB   [     3,    0,    1,    0,    0,    2,    1,    1 ]

  @DF-UKS Final Energy:  -150.37119868751086

   => Energetics <=

    Nuclear Repulsion Energy =             23.2406640495455576
    One-Electron Energy =                -259.2487068092282811
    Two-Electron Energy =                  99.6151905318452293
    DFT Exchange-Correlation Energy =     -13.9783464596733555
    Empirical Dispersion Energy =           0.0000000000000000
    VV10 Nonlocal Energy =                  0.0000000000000000
    Total Energy =                       -150.3711986875108551

  UHF NO Occupations:
  HONO-2 :    2B1u 1.9997326
  HONO-1 :    1B2u 1.9982602
  HONO-0 :    1B3g 1.0000000
  LUNO+0 :    2B2u 0.0017398
  LUNO+1 :    3B1u 0.0002674
  LUNO+2 :    4 Ag 0.0001508
  LUNO+3 :    2B3u 0.0000503

Computation Completed

Properties will be evaluated at   0.000000,   0.000000,   0.000000 [a0]

Properties computed using the B3LYP density matrix

 Multipole Moments:

 ------------------------------------------------------------------------------------
     Multipole            Electronic (a.u.)      Nuclear  (a.u.)        Total (a.u.)
 ------------------------------------------------------------------------------------

 L = 1.  Multiply by 2.5417464519 to convert [e a0] to [Debye]
 Dipole X            :          0.0000000            0.0000000            0.0000000
 Dipole Y            :          0.0000000            0.0000000            0.0000000
 Dipole Z            :          0.0000000            0.0000000            0.0000000
 Magnitude           :                                                    0.0000000

 L = 2.  Multiply by 1.3450342976 to convert [e a0^2] to [Debye ang]
 Quadrupole XX       :         -9.7408663            0.0000000           -9.7408663
 Quadrupole XY       :          0.0000000            0.0000000            0.0000000
 Quadrupole XZ       :          0.0000000            0.0000000            0.0000000
 Quadrupole YY       :         -8.9445837            0.0000000           -8.9445837
 Quadrupole YZ       :          0.0000000            0.0000000            0.0000000
 Quadrupole ZZ       :        -41.6954240           30.3335244          -11.3618996
 Traceless XX        :         10.3860917          -10.1111748            0.2749169
 Traceless YY        :         11.1823743          -10.1111748            1.0711995
 Traceless ZZ        :        -21.5684660           20.2223496           -1.3461164

 ------------------------------------------------------------------------------------
  ==> Computing MBIS Charges <==

  Electron Count from Grid (Expected Number): 17.00000 (17.00000)
  Difference: -0.00000

  MBIS Charges: (a.u.)
   Center  Symbol  Z      Pop.       Charge
      1       O    8    8.499999   -0.499999
      2       O    8    8.499999   -0.499999

  MBIS Dipoles: [e a0]
   Center  Symbol  Z        X           Y           Z
      1       O    8    0.000000    0.000000    0.153134
      2       O    8    0.000000    0.000000   -0.153134

  MBIS Quadrupoles: [e a0^2]
   Center  Symbol  Z      XX        XY        XZ        YY        YZ        ZZ
      1       O    8   -4.8704    0.0000   -0.0000   -4.4723    0.0000   -4.3113
      2       O    8   -4.8704    0.0000    0.0000   -4.4723   -0.0000   -4.3113

  MBIS Octupoles: [e a0^3]
   Center  Symbol  Z      XXX       XXY       XXZ       XYY       XYZ       XZZ       YYY       YYZ       YZZ       ZZZ
      1       O    8   -0.0000   -0.0000    0.2230    0.0000   -0.0000   -0.0000    0.0000    0.0966    0.0000   -0.1883
      2       O    8   -0.0000   -0.0000   -0.2230    0.0000    0.0000    0.0000    0.0000   -0.0966    0.0000    0.1883

  MBIS Radial Moments:
   Center  Symbol  Z      [a0^2]      [a0^3]      [a0^4]
      1       O    8   13.654055   27.434961   65.764239
      2       O    8   13.654055   27.434961   65.764239

  MBIS Valence Widths: [a0]
   Center  Symbol  Z     Width
      1       O    8    0.408597
      2       O    8    0.408597

*** tstop() called on Mac.lan at Sun Aug 10 17:28:26 2025
Module time:
	user time   =       3.31 seconds =       0.06 minutes
	system time =       2.32 seconds =       0.04 minutes
	total time  =          0 seconds =       0.00 minutes
Total time:
	user time   =      15.11 seconds =       0.25 minutes
	system time =       4.50 seconds =       0.07 minutes
	total time  =          2 seconds =       0.03 minutes

    Psi4 stopped on: Sunday, 10 August 2025 05:28PM
    Psi4 wall time for execution: 0:00:01.91

*** Psi4 exiting successfully. Buy a developer a beer!
