                               Psi4 1.9.1 release

  ==> Input File <==

--------------------------------------------------------------------------
molecule {
-1 2
N           0.000000           0.000000           0.000000
N           0.000000           0.000000           0.806492
}

set {
basis              cc-pvtz
reference          uks
maxiter            500
DAMPING_PERCENTAGE 1
E_CONVERGENCE      1.0E-8
D_CONVERGENCE      1.0E-8
DIIS_MAX_VECS      400
MBIS_MAXITER       8000
guess              read
}

E, wfn = energy('b3lyp', restart_file='last_wfn', return_wfn=True)
properties('b3lyp','MBIS_CHARGES', wfn=wfn)
wfn.to_file('last_wfn')
--------------------------------------------------------------------------

    Molecular point group: d2h
  Charge       = -1
  Multiplicity = 2
  Basis Set: CC-PVTZ
    Blend: CC-PVTZ
  Basis Set: (CC-PVTZ AUX)
    Blend: CC-PVTZ-JKFIT
  @DF-UKS Final Energy:  -108.83031290203368
    Total Energy =                       -108.8303129020336826
 Dipole X            :          0.0000000            0.0000000            0.0000000
 Dipole Y            :          0.0000000            0.0000000            0.0000000
 Dipole Z            :          0.0000000            0.0000000            0.0000000
 Magnitude           :                                                    0.0000000
    Molecular point group: d2h

    Geometry (in Angstrom), charge = -1, multiplicity = 2:

       Center              X                  Y                   Z               Mass
    ------------   -----------------  -----------------  -----------------  -----------------
         N            0.000000000000     0.000000000000    -0.403246000000    14.003074004430
         N            0.000000000000     0.000000000000     0.403246000000    14.003074004430

  Charge       = -1
  Multiplicity = 2
  Basis Set: CC-PVTZ
    Blend: CC-PVTZ
  Basis Set: (CC-PVTZ AUX)
    Blend: CC-PVTZ-JKFIT

    Orbital Energies [Eh]
    ---------------------

    Alpha Occupied:

       1Ag   -13.962392     1B1u  -13.932863     2Ag    -0.891238
       1B3u   -0.246006     1B2u   -0.239004     2B1u   -0.126513
       3Ag    -0.101647     1B2g    0.370799

    Alpha Virtual:

       1B3g    0.449024     3B1u    0.561049     2B3u    0.628867
       2B2u    0.628954     4Ag     0.649381     5Ag     0.840839
       2B2g    0.877986     2B3g    0.898248     4B1u    1.121338
       1B1g    1.165934     6Ag     1.166970     3B3u    1.620368
       3B2u    1.623594     5B1u    1.645781     1Au     1.691487
       6B1u    1.693459     7Ag     1.882817     3B2g    2.007914
       3B3g    2.015051     4B2u    2.954629     4B3u    2.957431
       7B1u    3.184886     8Ag     3.542288     4B2g    3.740389
       4B3g    3.744341     8B1u    3.812065     5B3u    3.834953
       5B2u    3.835004     2B1g    3.942055     9Ag     3.942777
       6B3u    4.324181     6B2u    4.326237    10Ag     4.563555
       5B2g    4.692180     5B3g    4.694353     6B2g    4.710961
       6B3g    4.711036     2Au     4.759533     9B1u    4.761068
       3B1g    4.830987    11Ag     4.832190    12Ag     5.108034
      10B1u    5.577672     7B2u    5.885348     7B3u    5.887608
       3Au     6.136792    11B1u    6.137660    12B1u    7.546425
       7B2g    8.035333     7B3g    8.036841    13Ag     9.122043
      13B1u   26.691118

    Beta Occupied:

       1Ag   -13.957176     1B1u  -13.927526     2Ag    -0.883627
       1B2u   -0.234064     1B3u   -0.207735     2B1u   -0.099478
       3Ag    -0.084390

    Beta Virtual:

       1B3g    0.458685     1B2g    0.482717     3B1u    0.568819
       2B2u    0.632832     2B3u    0.652267     4Ag     0.657134
       5Ag     0.850911     2B3g    0.906091     2B2g    0.927227
       4B1u    1.143416     1B1g    1.180417     6Ag     1.180770
       3B2u    1.626838     3B3u    1.651731     5B1u    1.657281
       1Au     1.722860     6B1u    1.724112     7Ag     1.887189
       3B3g    2.019732     3B2g    2.040015     4B2u    2.958572
       4B3u    2.981442     7B1u    3.192782     8Ag     3.550240
       4B3g    3.750386     4B2g    3.774853     8B1u    3.831409
       5B2u    3.850028     5B3u    3.850037     2B1g    3.952417
       9Ag     3.952764     6B2u    4.328594     6B3u    4.349990
      10Ag     4.572843     5B3g    4.696142     5B2g    4.718051
       6B3g    4.735565     6B2g    4.735976     9B1u    4.788055
       2Au     4.788190     3B1g    4.855596    11Ag     4.856008
      12Ag     5.114916    10B1u    5.587874     7B2u    5.887086
       7B3u    5.909694     3Au     6.154929    11B1u    6.155055
      12B1u    7.553109     7B3g    8.040102     7B2g    8.062601
      13Ag     9.134191    13B1u   26.698197

    Final Occupation by Irrep:
             Ag   B1g   B2g   B3g    Au   B1u   B2u   B3u
    DOCC [     3,    0,    0,    0,    0,    2,    1,    1 ]
    SOCC [     0,    0,    1,    0,    0,    0,    0,    0 ]
    NA   [     3,    0,    1,    0,    0,    2,    1,    1 ]
    NB   [     3,    0,    0,    0,    0,    2,    1,    1 ]

  @DF-UKS Final Energy:  -108.83031290182194

   => Energetics <=

    Nuclear Repulsion Energy =             32.1511971883540113
    One-Electron Energy =                -214.9936921327920345
    Two-Electron Energy =                  85.7743401050376946
    DFT Exchange-Correlation Energy =     -11.7621580624216140
    Empirical Dispersion Energy =           0.0000000000000000
    VV10 Nonlocal Energy =                  0.0000000000000000
    Total Energy =                       -108.8303129018219408

  UHF NO Occupations:
  HONO-2 :    1B3u 1.9998859
  HONO-1 :    2B1u 1.9998422
  HONO-0 :    1B2g 1.0000000
  LUNO+0 :    3B1u 0.0001578
  LUNO+1 :    2B3u 0.0001141
  LUNO+2 :    4 Ag 0.0000861
  LUNO+3 :    2B2u 0.0000061

Computation Completed

Properties will be evaluated at   0.000000,   0.000000,   0.000000 [a0]

Properties computed using the B3LYP density matrix

 Multipole Moments:

 ------------------------------------------------------------------------------------
     Multipole            Electronic (a.u.)      Nuclear  (a.u.)        Total (a.u.)
 ------------------------------------------------------------------------------------

 L = 1.  Multiply by 2.5417464519 to convert [e a0] to [Debye]
 Dipole X            :          0.0000000            0.0000000            0.0000000
 Dipole Y            :          0.0000000            0.0000000            0.0000000
 Dipole Z            :          0.0000000            0.0000000            0.0000000
 Magnitude           :                                                    0.0000000

 L = 2.  Multiply by 1.3450342976 to convert [e a0^2] to [Debye ang]
 Quadrupole XX       :        -10.1968826            0.0000000          -10.1968826
 Quadrupole XY       :          0.0000000            0.0000000            0.0000000
 Quadrupole XZ       :          0.0000000            0.0000000            0.0000000
 Quadrupole YY       :         -8.2825884            0.0000000           -8.2825884
 Quadrupole YZ       :          0.0000000            0.0000000            0.0000000
 Quadrupole ZZ       :        -20.7767382            8.1295388          -12.6471994
 Traceless XX        :          2.8885204           -2.7098463            0.1786742
 Traceless YY        :          4.8028147           -2.7098463            2.0929684
 Traceless ZZ        :         -7.6913351            5.4196925           -2.2716426

 ------------------------------------------------------------------------------------
  ==> Computing MBIS Charges <==

  Electron Count from Grid (Expected Number): 15.00000 (15.00000)
  Difference:  0.00000

  MBIS Charges: (a.u.)
   Center  Symbol  Z      Pop.       Charge
      1       N    7    7.500001   -0.500001
      2       N    7    7.500001   -0.500001

  MBIS Dipoles: [e a0]
   Center  Symbol  Z        X           Y           Z
      1       N    7    0.000000    0.000000    0.306314
      2       N    7    0.000000    0.000000   -0.306314

  MBIS Quadrupoles: [e a0^2]
   Center  Symbol  Z      XX        XY        XZ        YY        YZ        ZZ
      1       N    7   -5.0984   -0.0000    0.0000   -4.1413   -0.0000   -5.5664
      2       N    7   -5.0984    0.0000    0.0000   -4.1413    0.0000   -5.5664

  MBIS Octupoles: [e a0^3]
   Center  Symbol  Z      XXX       XXY       XXZ       XYY       XYZ       XZZ       YYY       YYZ       YZZ       ZZZ
      1       N    7    0.0000    0.0000    1.1168   -0.0000    0.0000   -0.0000    0.0000    0.5117    0.0000    0.9869
      2       N    7    0.0000    0.0000   -1.1168   -0.0000   -0.0000    0.0000   -0.0000   -0.5117    0.0000   -0.9869

  MBIS Radial Moments:
   Center  Symbol  Z      [a0^2]      [a0^3]      [a0^4]
      1       N    7   14.806157   34.279433   95.377193
      2       N    7   14.806157   34.279433   95.377193

  MBIS Valence Widths: [a0]
   Center  Symbol  Z     Width
      1       N    7    0.457589
      2       N    7    0.457589

*** tstop() called on Mac.lan at Sun Aug 10 17:32:42 2025
Module time:
	user time   =       3.49 seconds =       0.06 minutes
	system time =       2.23 seconds =       0.04 minutes
	total time  =          1 seconds =       0.02 minutes
Total time:
	user time   =      16.88 seconds =       0.28 minutes
	system time =       4.33 seconds =       0.07 minutes
	total time  =          2 seconds =       0.03 minutes

    Psi4 stopped on: Sunday, 10 August 2025 05:32PM
    Psi4 wall time for execution: 0:00:02.06

*** Psi4 exiting successfully. Buy a developer a beer!
