                               Psi4 1.9.1 release

  ==> Input File <==

--------------------------------------------------------------------------
molecule {
-1 1
O           0.000000           0.000000           0.000000
H           0.000000           0.000000           0.841256
}

set {
basis              cc-pvtz
reference          uks
maxiter            500
DAMPING_PERCENTAGE 1
E_CONVERGENCE      1.0E-8
D_CONVERGENCE      1.0E-8
DIIS_MAX_VECS      400
MBIS_MAXITER       8000
guess              read
}

E, wfn = energy('b3lyp', restart_file='last_wfn', return_wfn=True)
properties('b3lyp','MBIS_CHARGES', wfn=wfn)
wfn.to_file('last_wfn')
--------------------------------------------------------------------------

    Molecular point group: c2v
  Charge       = -1
  Multiplicity = 1
  Basis Set: CC-PVTZ
    Blend: CC-PVTZ
  Basis Set: (CC-PVTZ AUX)
    Blend: CC-PVTZ-JKFIT
  @DF-UKS Final Energy:   -75.77086361225919
    Total Energy =                        -75.7708636122591912
 Dipole X            :          0.0000000            0.0000000            0.0000000
 Dipole Y            :          0.0000000            0.0000000            0.0000000
 Dipole Z            :         -0.2132040            0.7416655            0.5284615
 Magnitude           :                                                    0.5284615
    Molecular point group: c2v

    Geometry (in Angstrom), charge = -1, multiplicity = 1:

       Center              X                  Y                   Z               Mass
    ------------   -----------------  -----------------  -----------------  -----------------
         O            0.000000000000     0.000000000000    -0.049864837825    15.994914619570
         H            0.000000000000     0.000000000000     0.791391162175     1.007825032230

  Charge       = -1
  Multiplicity = 1
  Basis Set: CC-PVTZ
    Blend: CC-PVTZ
  Basis Set: (CC-PVTZ AUX)
    Blend: CC-PVTZ-JKFIT

    Orbital Energies [Eh]
    ---------------------

    Alpha Occupied:

       1A1   -18.646489     2A1    -0.551573     3A1    -0.026530
       1B2     0.121138     1B1     0.121138

    Alpha Virtual:

       4A1     0.324994     5A1     0.796942     6A1     0.859862
       2B1     0.946107     2B2     0.946107     3B2     1.084715
       3B1     1.084715     7A1     1.216952     8A1     1.817259
       9A1     1.889752     1A2     1.889752     4B1     2.237251
       4B2     2.237251    10A1     2.238301    11A1     2.961209
       2A2     3.660396    12A1     3.660396     5B2     3.837022
       5B1     3.837022     6B2     4.069604     6B1     4.069604
      13A1     4.220377     7B2     4.623108     7B1     4.623108
      14A1     4.956679    15A1     5.427755     8B2     5.591232
       8B1     5.591232     3A2     6.015785    16A1     6.015785
      17A1     6.681302     4A2     6.681302     9B1     6.839372
       9B2     6.839372    18A1     7.224604    10B1     7.557427
      10B2     7.557427    19A1     7.713487    20A1    11.939843

    Beta Occupied:

       1A1   -18.646489     2A1    -0.551573     3A1    -0.026530
       1B2     0.121138     1B1     0.121138

    Beta Virtual:

       4A1     0.324994     5A1     0.796942     6A1     0.859862
       2B1     0.946107     2B2     0.946107     3B2     1.084715
       3B1     1.084715     7A1     1.216952     8A1     1.817259
       9A1     1.889752     1A2     1.889752     4B1     2.237251
       4B2     2.237251    10A1     2.238301    11A1     2.961209
       2A2     3.660396    12A1     3.660396     5B2     3.837022
       5B1     3.837022     6B2     4.069604     6B1     4.069604
      13A1     4.220377     7B2     4.623108     7B1     4.623108
      14A1     4.956679    15A1     5.427755     8B2     5.591232
       8B1     5.591232     3A2     6.015785    16A1     6.015785
      17A1     6.681302     4A2     6.681302     9B1     6.839372
       9B2     6.839372    18A1     7.224604    10B1     7.557427
      10B2     7.557427    19A1     7.713487    20A1    11.939843

    Final Occupation by Irrep:
             A1    A2    B1    B2
    DOCC [     3,    0,    1,    1 ]
    SOCC [     0,    0,    0,    0 ]
    NA   [     3,    0,    1,    1 ]
    NB   [     3,    0,    1,    1 ]

  @DF-UKS Final Energy:   -75.77086361245961

   => Energetics <=

    Nuclear Repulsion Energy =              5.0322585340966368
    One-Electron Energy =                -118.2389555481698977
    Two-Electron Energy =                  44.9599630612094785
    DFT Exchange-Correlation Energy =      -7.5241296595958262
    Empirical Dispersion Energy =           0.0000000000000000
    VV10 Nonlocal Energy =                  0.0000000000000000
    Total Energy =                        -75.7708636124596069

  UHF NO Occupations:
  HONO-2 :    1 B1 2.0000000
  HONO-1 :    1 B2 2.0000000
  HONO-0 :    3 A1 2.0000000
  LUNO+0 :    4 A1 0.0000000
  LUNO+1 :    2 B2 0.0000000
  LUNO+2 :    5 A1 0.0000000
  LUNO+3 :    6 A1 0.0000000

Computation Completed

Properties will be evaluated at   0.000000,   0.000000,   0.000000 [a0]

Properties computed using the B3LYP density matrix

 Multipole Moments:

 ------------------------------------------------------------------------------------
     Multipole            Electronic (a.u.)      Nuclear  (a.u.)        Total (a.u.)
 ------------------------------------------------------------------------------------

 L = 1.  Multiply by 2.5417464519 to convert [e a0] to [Debye]
 Dipole X            :          0.0000000            0.0000000            0.0000000
 Dipole Y            :          0.0000000            0.0000000            0.0000000
 Dipole Z            :         -0.2132040            0.7416655            0.5284615
 Magnitude           :                                                    0.5284615

 L = 2.  Multiply by 1.3450342976 to convert [e a0^2] to [Debye ang]
 Quadrupole XX       :         -6.1867147            0.0000000           -6.1867147
 Quadrupole XY       :          0.0000000            0.0000000            0.0000000
 Quadrupole XZ       :          0.0000000            0.0000000            0.0000000
 Quadrupole YY       :         -6.1867147            0.0000000           -6.1867147
 Quadrupole YZ       :          0.0000000            0.0000000            0.0000000
 Quadrupole ZZ       :         -7.3377720            2.3075935           -5.0301785
 Traceless XX        :          0.3836857           -0.7691978           -0.3855121
 Traceless YY        :          0.3836857           -0.7691978           -0.3855121
 Traceless ZZ        :         -0.7673715            1.5383957            0.7710242

 ------------------------------------------------------------------------------------
  ==> Computing MBIS Charges <==

  Electron Count from Grid (Expected Number): 10.00000 (10.00000)
  Difference: -0.00000

  MBIS Charges: (a.u.)
   Center  Symbol  Z      Pop.       Charge
      1       O    8    9.346320   -1.346320
      2       H    1    0.653680    0.346320

  MBIS Dipoles: [e a0]
   Center  Symbol  Z        X           Y           Z
      1       O    8   -0.000000   -0.000000   -0.128051
      2       H    1   -0.000000    0.000000    0.011722

  MBIS Quadrupoles: [e a0^2]
   Center  Symbol  Z      XX        XY        XZ        YY        YZ        ZZ
      1       O    8   -5.8470    0.0000   -0.0000   -5.8470    0.0000   -5.5110
      2       H    1   -0.3397   -0.0000   -0.0000   -0.3397   -0.0000   -0.3410

  MBIS Octupoles: [e a0^3]
   Center  Symbol  Z      XXX       XXY       XXZ       XYY       XYZ       XZZ       YYY       YYZ       YZZ       ZZZ
      1       O    8   -0.0000   -0.0000   -0.1215   -0.0000    0.0000   -0.0000   -0.0000   -0.1215    0.0000   -0.8070
      2       H    1   -0.0000   -0.0000    0.0018   -0.0000    0.0000   -0.0000    0.0000    0.0018   -0.0000   -0.0058

  MBIS Radial Moments:
   Center  Symbol  Z      [a0^2]      [a0^3]      [a0^4]
      1       O    8   17.205062   36.434048   91.080671
      2       H    1    1.020349    1.844607    3.965147

  MBIS Valence Widths: [a0]
   Center  Symbol  Z     Width
      1       O    8    0.433796
      2       H    1    0.359453

*** tstop() called on Mac.lan at Sun Aug 10 17:36:59 2025
Module time:
	user time   =       3.50 seconds =       0.06 minutes
	system time =       2.68 seconds =       0.04 minutes
	total time  =          0 seconds =       0.00 minutes
Total time:
	user time   =      12.45 seconds =       0.21 minutes
	system time =       4.86 seconds =       0.08 minutes
	total time  =          1 seconds =       0.02 minutes

    Psi4 stopped on: Sunday, 10 August 2025 05:36PM
    Psi4 wall time for execution: 0:00:01.69

*** Psi4 exiting successfully. Buy a developer a beer!
