                               Psi4 1.9.1 release

  ==> Input File <==

--------------------------------------------------------------------------
molecule {
-1 1
N           0.000000           0.000000           0.000000
C           0.000000           0.000000           1.123965
}

set {
basis              cc-pvtz
reference          uks
maxiter            500
DAMPING_PERCENTAGE 1
E_CONVERGENCE      1.0E-8
D_CONVERGENCE      1.0E-8
DIIS_MAX_VECS      400
MBIS_MAXITER       8000
guess              read
}

E, wfn = energy('b3lyp', restart_file='last_wfn', return_wfn=True)
properties('b3lyp','MBIS_CHARGES', wfn=wfn)
wfn.to_file('last_wfn')
--------------------------------------------------------------------------

    Molecular point group: c2v
  Charge       = -1
  Multiplicity = 1
  Basis Set: CC-PVTZ
    Blend: CC-PVTZ
  Basis Set: (CC-PVTZ AUX)
    Blend: CC-PVTZ-JKFIT
  @DF-UKS Final Energy:   -92.87741816311812
    Total Energy =                        -92.8774181631181222
 Dipole X            :          0.0000000            0.0000000            0.0000000
 Dipole Y            :          0.0000000            0.0000000            0.0000000
 Dipole Z            :         -0.2822179            0.0015065           -0.2807114
 Magnitude           :                                                    0.2807114
    Molecular point group: c2v

    Geometry (in Angstrom), charge = -1, multiplicity = 1:

       Center              X                  Y                   Z               Mass
    ------------   -----------------  -----------------  -----------------  -----------------
         N            0.000000000000     0.000000000000    -0.518691751510    14.003074004430
         C            0.000000000000     0.000000000000     0.605273248490    12.000000000000

  Charge       = -1
  Multiplicity = 1
  Basis Set: CC-PVTZ
    Blend: CC-PVTZ
  Basis Set: (CC-PVTZ AUX)
    Blend: CC-PVTZ-JKFIT

    Orbital Energies [Eh]
    ---------------------

    Alpha Occupied:

       1A1   -14.000027     2A1    -9.865196     3A1    -0.614162
       4A1    -0.126096     1B2    -0.061140     1B1    -0.061140
       5A1    -0.016991

    Alpha Virtual:

       2B2     0.327253     2B1     0.327253     6A1     0.410654
       3B1     0.567724     3B2     0.567724     7A1     0.569718
       8A1     0.708888     4B1     0.787246     4B2     0.787246
       9A1     0.936357     1A2     0.936357    10A1     1.004279
       5B1     1.175150     5B2     1.175150    11A1     1.179543
       2A2     1.476761    12A1     1.476761    13A1     1.679563
       6B1     1.836218     6B2     1.836218    14A1     2.105299
       7B2     2.310951     7B1     2.310951    15A1     2.593024
       8B1     2.971710     8B2     2.971710    16A1     3.080102
       3A2     3.080103    17A1     3.098551     9B1     3.192437
       9B2     3.192437    10B2     3.299115    10B1     3.299115
      18A1     3.308165     4A2     3.308166    19A1     3.537955
      11B1     3.794494    11B2     3.794494    12B1     4.264242
      12B2     4.264242    20A1     4.360692     5A2     4.782047
      21A1     4.782050     6A2     4.909987    22A1     4.909990
      13B1     5.170881    13B2     5.170881    23A1     5.390274
      24A1     5.702883    14B1     6.005333    14B2     6.005333
      25A1     6.544716    26A1    13.583654

    Beta Occupied:

       1A1   -14.000027     2A1    -9.865196     3A1    -0.614162
       4A1    -0.126096     1B2    -0.061140     1B1    -0.061140
       5A1    -0.016991

    Beta Virtual:

       2B2     0.327253     2B1     0.327253     6A1     0.410654
       3B1     0.567724     3B2     0.567724     7A1     0.569718
       8A1     0.708888     4B1     0.787246     4B2     0.787246
       9A1     0.936357     1A2     0.936357    10A1     1.004279
       5B1     1.175150     5B2     1.175150    11A1     1.179543
       2A2     1.476761    12A1     1.476761    13A1     1.679563
       6B1     1.836218     6B2     1.836218    14A1     2.105299
       7B2     2.310951     7B1     2.310951    15A1     2.593024
       8B1     2.971710     8B2     2.971710    16A1     3.080102
       3A2     3.080103    17A1     3.098551     9B1     3.192437
       9B2     3.192437    10B2     3.299115    10B1     3.299115
      18A1     3.308165     4A2     3.308166    19A1     3.537955
      11B1     3.794494    11B2     3.794494    12B1     4.264242
      12B2     4.264242    20A1     4.360692     5A2     4.782047
      21A1     4.782050     6A2     4.909987    22A1     4.909990
      13B1     5.170881    13B2     5.170881    23A1     5.390274
      24A1     5.702883    14B1     6.005333    14B2     6.005333
      25A1     6.544716    26A1    13.583654

    Final Occupation by Irrep:
             A1    A2    B1    B2
    DOCC [     5,    0,    1,    1 ]
    SOCC [     0,    0,    0,    0 ]
    NA   [     5,    0,    1,    1 ]
    NB   [     5,    0,    1,    1 ]

  @DF-UKS Final Energy:   -92.87741816079095

   => Energetics <=

    Nuclear Repulsion Energy =             19.7741414084424321
    One-Electron Energy =                -168.5229483191016584
    Two-Electron Energy =                  65.9995703075428679
    DFT Exchange-Correlation Energy =     -10.1281815576745977
    Empirical Dispersion Energy =           0.0000000000000000
    VV10 Nonlocal Energy =                  0.0000000000000000
    Total Energy =                        -92.8774181607909526

  UHF NO Occupations:
  HONO-2 :    1 B1 2.0000000
  HONO-1 :    4 A1 2.0000000
  HONO-0 :    5 A1 2.0000000
  LUNO+0 :    6 A1 0.0000000
  LUNO+1 :    7 A1 0.0000000
  LUNO+2 :    8 A1 0.0000000
  LUNO+3 :    9 A1 0.0000000

Computation Completed

Properties will be evaluated at   0.000000,   0.000000,   0.000000 [a0]

Properties computed using the B3LYP density matrix

 Multipole Moments:

 ------------------------------------------------------------------------------------
     Multipole            Electronic (a.u.)      Nuclear  (a.u.)        Total (a.u.)
 ------------------------------------------------------------------------------------

 L = 1.  Multiply by 2.5417464519 to convert [e a0] to [Debye]
 Dipole X            :          0.0000000            0.0000000            0.0000000
 Dipole Y            :          0.0000000            0.0000000            0.0000000
 Dipole Z            :         -0.2822179            0.0015065           -0.2807114
 Magnitude           :                                                    0.2807114

 L = 2.  Multiply by 1.3450342976 to convert [e a0^2] to [Debye ang]
 Quadrupole XX       :        -10.2169004            0.0000000          -10.2169004
 Quadrupole XY       :          0.0000000            0.0000000            0.0000000
 Quadrupole XZ       :          0.0000000            0.0000000            0.0000000
 Quadrupole YY       :        -10.2169004            0.0000000          -10.2169004
 Quadrupole YZ       :          0.0000000            0.0000000            0.0000000
 Quadrupole ZZ       :        -28.2842339           14.5750231          -13.7092107
 Traceless XX        :          6.0224445           -4.8583410            1.1641034
 Traceless YY        :          6.0224445           -4.8583410            1.1641034
 Traceless ZZ        :        -12.0448890            9.7166821           -2.3282069

 ------------------------------------------------------------------------------------
  ==> Computing MBIS Charges <==

  Electron Count from Grid (Expected Number): 14.00000 (14.00000)
  Difference: -0.00000

  MBIS Charges: (a.u.)
   Center  Symbol  Z      Pop.       Charge
      1       N    7    7.493612   -0.493612
      2       C    6    6.506388   -0.506388

  MBIS Dipoles: [e a0]
   Center  Symbol  Z        X           Y           Z
      1       N    7   -0.000000   -0.000000    0.094369
      2       C    6   -0.000000   -0.000000   -0.279705

  MBIS Quadrupoles: [e a0^2]
   Center  Symbol  Z      XX        XY        XZ        YY        YZ        ZZ
      1       N    7   -4.6878    0.0000    0.0000   -4.6878    0.0000   -5.2773
      2       C    6   -5.5291    0.0000    0.0000   -5.5291    0.0000   -6.4703

  MBIS Octupoles: [e a0^3]
   Center  Symbol  Z      XXX       XXY       XXZ       XYY       XYZ       XZZ       YYY       YYZ       YZZ       ZZZ
      1       N    7   -0.0000   -0.0000    0.1614   -0.0000    0.0000   -0.0000   -0.0000    0.1614    0.0000    0.5128
      2       C    6   -0.0000   -0.0000   -0.4067   -0.0000    0.0000    0.0000    0.0000   -0.4067    0.0000   -1.0402

  MBIS Radial Moments:
   Center  Symbol  Z      [a0^2]      [a0^3]      [a0^4]
      1       N    7   14.652936   32.776377   87.579818
      2       C    6   17.528481   46.549394   145.729857

  MBIS Valence Widths: [a0]
   Center  Symbol  Z     Width
      1       N    7    0.459166
      2       C    6    0.554862

*** tstop() called on Mac.lan at Sun Aug 10 17:40:19 2025
Module time:
	user time   =       3.86 seconds =       0.06 minutes
	system time =       1.61 seconds =       0.03 minutes
	total time  =          1 seconds =       0.02 minutes
Total time:
	user time   =      16.38 seconds =       0.27 minutes
	system time =       3.93 seconds =       0.07 minutes
	total time  =          2 seconds =       0.03 minutes

    Psi4 stopped on: Sunday, 10 August 2025 05:40PM
    Psi4 wall time for execution: 0:00:01.97

*** Psi4 exiting successfully. Buy a developer a beer!
