                               Psi4 1.9.1 release

  ==> Input File <==

--------------------------------------------------------------------------
molecule {
-1 3
C           0.000000           0.000000           0.000000
H           0.000000           0.000000           1.591861
}

set {
basis              cc-pvtz
reference          uks
maxiter            500
DAMPING_PERCENTAGE 1
E_CONVERGENCE      1.0E-8
D_CONVERGENCE      1.0E-8
DIIS_MAX_VECS      400
MBIS_MAXITER       8000
guess              read
}

E, wfn = energy('b3lyp', restart_file='last_wfn', return_wfn=True)
properties('b3lyp','MBIS_CHARGES', wfn=wfn)
wfn.to_file('last_wfn')
--------------------------------------------------------------------------

    Molecular point group: c2v
  Charge       = -1
  Multiplicity = 3
  Basis Set: CC-PVTZ
    Blend: CC-PVTZ
  Basis Set: (CC-PVTZ AUX)
    Blend: CC-PVTZ-JKFIT
  @DF-UKS Final Energy:   -38.49487072856425
    Total Energy =                        -38.4948707285642513
 Dipole X            :          0.0000000            0.0000000            0.0000000
 Dipole Y            :          0.0000000            0.0000000            0.0000000
 Dipole Z            :         -1.8057086            1.3766985           -0.4290101
 Magnitude           :                                                    0.4290101
    Molecular point group: c2v

    Geometry (in Angstrom), charge = -1, multiplicity = 3:

       Center              X                  Y                   Z               Mass
    ------------   -----------------  -----------------  -----------------  -----------------
         C            0.000000000000     0.000000000000    -0.123334789610    12.000000000000
         H            0.000000000000     0.000000000000     1.468526210390     1.007825032230

  Charge       = -1
  Multiplicity = 3
  Basis Set: CC-PVTZ
    Blend: CC-PVTZ
  Basis Set: (CC-PVTZ AUX)
    Blend: CC-PVTZ-JKFIT

    Orbital Energies [Eh]
    ---------------------

    Alpha Occupied:

       1A1    -9.934767     2A1    -0.270414     3A1     0.000102
       1B2     0.062744     1B1     0.062744

    Alpha Virtual:

       4A1     0.248887     5A1     0.509553     2B2     0.555971
       2B1     0.555971     6A1     0.576768     7A1     0.718368
       3B2     0.828477     3B1     0.828477     1A2     0.948184
       8A1     0.948184     9A1     1.105711     4B2     1.188645
       4B1     1.188645    10A1     1.465552     5B2     2.232799
       5B1     2.232799    11A1     2.391746    12A1     2.736618
       6B2     2.868499     6B1     2.868499    13A1     2.911321
      14A1     2.939839     2A2     2.939839     7B2     2.966852
       7B1     2.966852     3A2     3.218267    15A1     3.218267
       8B2     3.296058     8B1     3.296058    16A1     3.531743
      17A1     3.566533     4A2     3.566538     9B2     3.900607
       9B1     3.900607    18A1     3.922871    10B1     4.173172
      10B2     4.173172    19A1     4.368987    20A1     5.490634

    Beta Occupied:

       1A1    -9.909477     2A1    -0.182232     3A1     0.017826

    Beta Virtual:

       1B2     0.225627     1B1     0.225627     4A1     0.267281
       5A1     0.511279     6A1     0.596459     2B2     0.626591
       2B1     0.626591     7A1     0.766216     3B2     0.846653
       3B1     0.846653     8A1     1.024633     1A2     1.024633
       9A1     1.125478     4B2     1.214122     4B1     1.214122
      10A1     1.475572     5B2     2.312485     5B1     2.312485
      11A1     2.410985    12A1     2.736580     6B2     2.906008
       6B1     2.906008    13A1     2.945564    14A1     3.000910
       2A2     3.000910     7B2     3.063377     7B1     3.063377
      15A1     3.335588     3A2     3.335588     8B2     3.363017
       8B1     3.363017    16A1     3.567373    17A1     3.570210
       4A2     3.570216     9B2     3.897583     9B1     3.897583
      18A1     3.960779    10B1     4.176538    10B2     4.176538
      19A1     4.365883    20A1     5.509468

    Final Occupation by Irrep:
             A1    A2    B1    B2
    DOCC [     3,    0,    0,    0 ]
    SOCC [     0,    0,    1,    1 ]
    NA   [     3,    0,    1,    1 ]
    NB   [     3,    0,    0,    0 ]

  @DF-UKS Final Energy:   -38.49487072832970

   => Energetics <=

    Nuclear Repulsion Energy =              1.9945606205692583
    One-Electron Energy =                 -57.4464352543195673
    Two-Electron Energy =                  21.6408705735900924
    DFT Exchange-Correlation Energy =      -4.6838666681694825
    Empirical Dispersion Energy =           0.0000000000000000
    VV10 Nonlocal Energy =                  0.0000000000000000
    Total Energy =                        -38.4948707283297011

  UHF NO Occupations:
  HONO-2 :    3 A1 1.9960536
  HONO-1 :    1 B2 1.0000000
  HONO-0 :    1 B1 1.0000000
  LUNO+0 :    4 A1 0.0039464
  LUNO+1 :    5 A1 0.0010712
  LUNO+2 :    6 A1 0.0000011
  LUNO+3 :    7 A1 0.0000000

Computation Completed

Properties will be evaluated at   0.000000,   0.000000,   0.000000 [a0]

Properties computed using the B3LYP density matrix

 Multipole Moments:

 ------------------------------------------------------------------------------------
     Multipole            Electronic (a.u.)      Nuclear  (a.u.)        Total (a.u.)
 ------------------------------------------------------------------------------------

 L = 1.  Multiply by 2.5417464519 to convert [e a0] to [Debye]
 Dipole X            :          0.0000000            0.0000000            0.0000000
 Dipole Y            :          0.0000000            0.0000000            0.0000000
 Dipole Z            :         -1.8057086            1.3766985           -0.4290101
 Magnitude           :                                                    0.4290101

 L = 2.  Multiply by 1.3450342976 to convert [e a0^2] to [Debye ang]
 Quadrupole XX       :         -8.2687267            0.0000000           -8.2687267
 Quadrupole XY       :          0.0000000            0.0000000            0.0000000
 Quadrupole XZ       :          0.0000000            0.0000000            0.0000000
 Quadrupole YY       :         -8.2687267            0.0000000           -8.2687267
 Quadrupole YZ       :          0.0000000            0.0000000            0.0000000
 Quadrupole ZZ       :        -18.6222632            8.0271754          -10.5950878
 Traceless XX        :          3.4511788           -2.6757251            0.7754537
 Traceless YY        :          3.4511788           -2.6757251            0.7754537
 Traceless ZZ        :         -6.9023577            5.3514503           -1.5509074

 ------------------------------------------------------------------------------------
  ==> Computing MBIS Charges <==

  Electron Count from Grid (Expected Number):  8.00000 ( 8.00000)
  Difference: -0.00000

  MBIS Charges: (a.u.)
   Center  Symbol  Z      Pop.       Charge
      1       C    6    6.724996   -0.724996
      2       H    1    1.275004   -0.275004

  MBIS Dipoles: [e a0]
   Center  Symbol  Z        X           Y           Z
      1       C    6   -0.000000   -0.000000    0.184636
      2       H    1   -0.000000    0.000000   -0.019454

  MBIS Quadrupoles: [e a0^2]
   Center  Symbol  Z      XX        XY        XZ        YY        YZ        ZZ
      1       C    6   -6.7557    0.0000    0.0000   -6.7557    0.0000   -6.6891
      2       H    1   -1.5130   -0.0000   -0.0000   -1.5130   -0.0000   -1.5546

  MBIS Octupoles: [e a0^3]
   Center  Symbol  Z      XXX       XXY       XXZ       XYY       XYZ       XZZ       YYY       YYZ       YZZ       ZZZ
      1       C    6    0.0000   -0.0000    0.1272   -0.0000   -0.0000    0.0000   -0.0000    0.1272   -0.0000   -0.7456
      2       H    1   -0.0000   -0.0000   -0.1124    0.0000   -0.0000   -0.0000   -0.0000   -0.1124   -0.0000   -0.1750

  MBIS Radial Moments:
   Center  Symbol  Z      [a0^2]      [a0^3]      [a0^4]
      1       C    6   20.200616   56.451005   186.378375
      2       H    1    4.580633   12.465559   39.937817

  MBIS Valence Widths: [a0]
   Center  Symbol  Z     Width
      1       C    6    0.584467
      2       H    1    0.545611

*** tstop() called on Mac.lan at Sun Aug 10 17:36:26 2025
Module time:
	user time   =       2.75 seconds =       0.05 minutes
	system time =       1.84 seconds =       0.03 minutes
	total time  =          1 seconds =       0.02 minutes
Total time:
	user time   =      13.97 seconds =       0.23 minutes
	system time =       3.72 seconds =       0.06 minutes
	total time  =          2 seconds =       0.03 minutes

    Psi4 stopped on: Sunday, 10 August 2025 05:36PM
    Psi4 wall time for execution: 0:00:01.73

*** Psi4 exiting successfully. Buy a developer a beer!
