                               Psi4 1.9.1 release

  ==> Input File <==

--------------------------------------------------------------------------
molecule {
-1 1
O           0.000000           0.000000           0.000000
H           0.000000           0.000000           1.160319
}

set {
basis              cc-pvtz
reference          uks
maxiter            500
DAMPING_PERCENTAGE 1
E_CONVERGENCE      1.0E-8
D_CONVERGENCE      1.0E-8
DIIS_MAX_VECS      400
MBIS_MAXITER       8000
guess              read
}

E, wfn = energy('b3lyp', restart_file='last_wfn', return_wfn=True)
properties('b3lyp','MBIS_CHARGES', wfn=wfn)
wfn.to_file('last_wfn')
--------------------------------------------------------------------------

    Molecular point group: c2v
  Charge       = -1
  Multiplicity = 1
  Basis Set: CC-PVTZ
    Blend: CC-PVTZ
  Basis Set: (CC-PVTZ AUX)
    Blend: CC-PVTZ-JKFIT
  @DF-UKS Final Energy:   -75.77138346095835
    Total Energy =                        -75.7713834609583472
 Dipole X            :          0.0000000            0.0000000            0.0000000
 Dipole Y            :          0.0000000            0.0000000            0.0000000
 Dipole Z            :         -0.8100336            1.0229568            0.2129232
 Magnitude           :                                                    0.2129232
    Molecular point group: c2v

    Geometry (in Angstrom), charge = -1, multiplicity = 1:

       Center              X                  Y                   Z               Mass
    ------------   -----------------  -----------------  -----------------  -----------------
         O            0.000000000000     0.000000000000    -0.068777065198    15.994914619570
         H            0.000000000000     0.000000000000     1.091541934802     1.007825032230

  Charge       = -1
  Multiplicity = 1
  Basis Set: CC-PVTZ
    Blend: CC-PVTZ
  Basis Set: (CC-PVTZ AUX)
    Blend: CC-PVTZ-JKFIT

    Orbital Energies [Eh]
    ---------------------

    Alpha Occupied:

       1A1   -18.705073     2A1    -0.495289     3A1    -0.023137
       1B2     0.107337     1B1     0.107337

    Alpha Virtual:

       4A1     0.294076     5A1     0.617011     6A1     0.876580
       2B1     0.914188     2B2     0.914188     3B2     1.027556
       3B1     1.027556     7A1     1.293467     8A1     1.441729
       1A2     1.878285     9A1     1.878285     4B1     2.073689
       4B2     2.073689    10A1     2.439406    11A1     2.676989
      12A1     3.531238     2A2     3.531239     5B2     3.678324
       5B1     3.678324    13A1     3.824790     6B2     4.022360
       6B1     4.022360     7B1     4.273035     7B2     4.273035
      14A1     4.309341    15A1     5.211706     8B2     5.575558
       8B1     5.575558     3A2     5.654945    16A1     5.654945
       9B1     6.252792     9B2     6.252792    17A1     6.531355
      18A1     6.651973     4A2     6.651974    10B1     6.923535
      10B2     6.923535    19A1     7.274551    20A1     9.091431

    Beta Occupied:

       1A1   -18.705073     2A1    -0.495289     3A1    -0.023137
       1B2     0.107337     1B1     0.107337

    Beta Virtual:

       4A1     0.294076     5A1     0.617011     6A1     0.876580
       2B1     0.914188     2B2     0.914188     3B2     1.027556
       3B1     1.027556     7A1     1.293467     8A1     1.441729
       1A2     1.878285     9A1     1.878285     4B1     2.073689
       4B2     2.073689    10A1     2.439406    11A1     2.676989
      12A1     3.531238     2A2     3.531239     5B2     3.678324
       5B1     3.678324    13A1     3.824790     6B2     4.022360
       6B1     4.022360     7B1     4.273035     7B2     4.273035
      14A1     4.309341    15A1     5.211706     8B2     5.575558
       8B1     5.575558     3A2     5.654945    16A1     5.654945
       9B1     6.252792     9B2     6.252792    17A1     6.531355
      18A1     6.651973     4A2     6.651974    10B2     6.923535
      10B1     6.923535    19A1     7.274551    20A1     9.091431

    Final Occupation by Irrep:
             A1    A2    B1    B2
    DOCC [     3,    0,    1,    1 ]
    SOCC [     0,    0,    0,    0 ]
    NA   [     3,    0,    1,    1 ]
    NB   [     3,    0,    1,    1 ]

  @DF-UKS Final Energy:   -75.77138347280052

   => Energetics <=

    Nuclear Repulsion Energy =              3.6484946685868276
    One-Electron Energy =                -115.5058388998091630
    Two-Electron Energy =                  43.4840087282090266
    DFT Exchange-Correlation Energy =      -7.3980479697872177
    Empirical Dispersion Energy =           0.0000000000000000
    VV10 Nonlocal Energy =                  0.0000000000000000
    Total Energy =                        -75.7713834728005367

  UHF NO Occupations:
  HONO-2 :    2 A1 2.0000000
  HONO-1 :    1 B1 2.0000000
  HONO-0 :    3 A1 2.0000000
  LUNO+0 :    4 A1 0.0000000
  LUNO+1 :    5 A1 0.0000000
  LUNO+2 :    6 A1 0.0000000
  LUNO+3 :    7 A1 0.0000000

Computation Completed

Properties will be evaluated at   0.000000,   0.000000,   0.000000 [a0]

Properties computed using the B3LYP density matrix

 Multipole Moments:

 ------------------------------------------------------------------------------------
     Multipole            Electronic (a.u.)      Nuclear  (a.u.)        Total (a.u.)
 ------------------------------------------------------------------------------------

 L = 1.  Multiply by 2.5417464519 to convert [e a0] to [Debye]
 Dipole X            :          0.0000000            0.0000000            0.0000000
 Dipole Y            :          0.0000000            0.0000000            0.0000000
 Dipole Z            :         -0.8100336            1.0229568            0.2129232
 Magnitude           :                                                    0.2129232

 L = 2.  Multiply by 1.3450342976 to convert [e a0^2] to [Debye ang]
 Quadrupole XX       :         -6.5088276            0.0000000           -6.5088276
 Quadrupole XY       :          0.0000000            0.0000000            0.0000000
 Quadrupole XZ       :          0.0000000            0.0000000            0.0000000
 Quadrupole YY       :         -6.5088276            0.0000000           -6.5088276
 Quadrupole YZ       :          0.0000000            0.0000000            0.0000000
 Quadrupole ZZ       :         -9.9497990            4.3899317           -5.5598673
 Traceless XX        :          1.1469905           -1.4633106           -0.3163201
 Traceless YY        :          1.1469905           -1.4633106           -0.3163201
 Traceless ZZ        :         -2.2939809            2.9266211            0.6326402

 ------------------------------------------------------------------------------------
  ==> Computing MBIS Charges <==

  Electron Count from Grid (Expected Number): 10.00000 (10.00000)
  Difference:  0.00000

  MBIS Charges: (a.u.)
   Center  Symbol  Z      Pop.       Charge
      1       O    8    9.079970   -1.079970
      2       H    1    0.920030    0.079970

  MBIS Dipoles: [e a0]
   Center  Symbol  Z        X           Y           Z
      1       O    8   -0.000000   -0.000000   -0.107298
      2       H    1    0.000000   -0.000000    0.014902

  MBIS Quadrupoles: [e a0^2]
   Center  Symbol  Z      XX        XY        XZ        YY        YZ        ZZ
      1       O    8   -5.6571   -0.0000    0.0000   -5.6571   -0.0000   -5.1358
      2       H    1   -0.8517   -0.0000    0.0000   -0.8517    0.0000   -0.8355

  MBIS Octupoles: [e a0^3]
   Center  Symbol  Z      XXX       XXY       XXZ       XYY       XYZ       XZZ       YYY       YYZ       YZZ       ZZZ
      1       O    8   -0.0000   -0.0000   -0.1923    0.0000   -0.0000    0.0000   -0.0000   -0.1923   -0.0000   -0.9491
      2       H    1    0.0000   -0.0000    0.0004    0.0000    0.0000    0.0000   -0.0000    0.0004   -0.0000   -0.0074

  MBIS Radial Moments:
   Center  Symbol  Z      [a0^2]      [a0^3]      [a0^4]
      1       O    8   16.449981   34.755768   87.091552
      2       H    1    2.538923    6.069358   17.164190

  MBIS Valence Widths: [a0]
   Center  Symbol  Z     Width
      1       O    8    0.431750
      2       H    1    0.478158

*** tstop() called on Mac.lan at Sun Aug 10 17:38:14 2025
Module time:
	user time   =       3.27 seconds =       0.05 minutes
	system time =       1.40 seconds =       0.02 minutes
	total time  =          1 seconds =       0.02 minutes
Total time:
	user time   =      11.08 seconds =       0.18 minutes
	system time =       3.66 seconds =       0.06 minutes
	total time  =          2 seconds =       0.03 minutes

    Psi4 stopped on: Sunday, 10 August 2025 05:38PM
    Psi4 wall time for execution: 0:00:01.44

*** Psi4 exiting successfully. Buy a developer a beer!
