                               Psi4 1.9.1 release

  ==> Input File <==

--------------------------------------------------------------------------
molecule {
-1 3
C           0.000000           0.000000           0.000000
H           0.000000           0.000000           1.051450
}

set {
basis              cc-pvtz
reference          uks
maxiter            500
DAMPING_PERCENTAGE 1
E_CONVERGENCE      1.0E-8
D_CONVERGENCE      1.0E-8
DIIS_MAX_VECS      400
MBIS_MAXITER       8000
guess              SAP
}

E, wfn = energy('b3lyp', return_wfn=True)
properties('b3lyp','MBIS_CHARGES', wfn=wfn)
wfn.to_file('last_wfn')
--------------------------------------------------------------------------

    Molecular point group: c2v
  Charge       = -1
  Multiplicity = 3
  Basis Set: CC-PVTZ
    Blend: CC-PVTZ
  Basis Set: (CC-PVTZ AUX)
    Blend: CC-PVTZ-JKFIT
  @DF-UKS Final Energy:   -38.52241506285515
    Total Energy =                        -38.5224150628551456
 Dipole X            :          0.0000000            0.0000000            0.0000000
 Dipole Y            :          0.0000000            0.0000000            0.0000000
 Dipole Z            :         -0.3561332            0.9093317            0.5531985
 Magnitude           :                                                    0.5531985
    Molecular point group: c2v

    Geometry (in Angstrom), charge = -1, multiplicity = 3:

       Center              X                  Y                   Z               Mass
    ------------   -----------------  -----------------  -----------------  -----------------
         C            0.000000000000     0.000000000000    -0.081464628215    12.000000000000
         H            0.000000000000     0.000000000000     0.969985371785     1.007825032230

  Charge       = -1
  Multiplicity = 3
  Basis Set: CC-PVTZ
    Blend: CC-PVTZ
  Basis Set: (CC-PVTZ AUX)
    Blend: CC-PVTZ-JKFIT

    Orbital Energies [Eh]
    ---------------------

    Alpha Occupied:

       1A1    -9.863333     2A1    -0.320188     3A1     0.014156
       1B1     0.089875     1B2     0.089875

    Alpha Virtual:

       4A1     0.296802     5A1     0.542267     2B1     0.576663
       2B2     0.576663     6A1     0.644811     7A1     0.745615
       3B2     0.890948     3B1     0.890948     8A1     0.967481
       1A2     0.967481     9A1     1.262656     4B1     1.337715
       4B2     1.337715    10A1     1.786616     5B2     2.301337
       5B1     2.301337    11A1     2.329209    12A1     2.518362
      13A1     2.874248     2A2     2.874248     6B2     2.993049
       6B1     2.993049     7B1     2.997640     7B2     2.997640
      14A1     3.269124     3A2     3.269124    15A1     3.291834
       8B1     3.403844     8B2     3.403844    16A1     3.678813
      17A1     3.958978     4A2     3.958979     9B2     4.155409
       9B1     4.155409    18A1     5.029510    10B1     5.189044
      10B2     5.189044    19A1     5.255107    20A1     9.148745

    Beta Occupied:

       1A1    -9.840359     2A1    -0.252100     3A1     0.051423

    Beta Virtual:

       1B1     0.245435     1B2     0.245435     4A1     0.302853
       5A1     0.559681     2B1     0.647200     2B2     0.647200
       6A1     0.678180     7A1     0.769450     3B2     0.922072
       3B1     0.922072     1A2     1.043994     8A1     1.043994
       9A1     1.285627     4B1     1.361212     4B2     1.361212
      10A1     1.812128    11A1     2.347391     5B2     2.380911
       5B1     2.380911    12A1     2.552579    13A1     2.923741
       2A2     2.923741     6B2     3.034234     6B1     3.034234
       7B1     3.093037     7B2     3.093037    14A1     3.326206
       3A2     3.385070    15A1     3.385070     8B1     3.447969
       8B2     3.447969    16A1     3.702473    17A1     3.982714
       4A2     3.982715     9B2     4.159611     9B1     4.159611
      18A1     5.042806    10B1     5.215520    10B2     5.215520
      19A1     5.267395    20A1     9.176448

    Final Occupation by Irrep:
             A1    A2    B1    B2
    DOCC [     3,    0,    0,    0 ]
    SOCC [     0,    0,    1,    1 ]
    NA   [     3,    0,    1,    1 ]
    NB   [     3,    0,    0,    0 ]

  @DF-UKS Final Energy:   -38.52241506285515

   => Energetics <=

    Nuclear Repulsion Energy =              3.0196997137476820
    One-Electron Energy =                 -59.6019674717012364
    Two-Electron Energy =                  22.8484892268783497
    DFT Exchange-Correlation Energy =      -4.7886365317799449
    Empirical Dispersion Energy =           0.0000000000000000
    VV10 Nonlocal Energy =                  0.0000000000000000
    Total Energy =                        -38.5224150628551456

  UHF NO Occupations:
  HONO-2 :    3 A1 1.9977023
  HONO-1 :    1 B1 1.0000000
  HONO-0 :    1 B2 1.0000000
  LUNO+0 :    4 A1 0.0022977
  LUNO+1 :    5 A1 0.0003278
  LUNO+2 :    6 A1 0.0000011
  LUNO+3 :    7 A1 0.0000000

Computation Completed

Properties will be evaluated at   0.000000,   0.000000,   0.000000 [a0]

Properties computed using the B3LYP density matrix

 Multipole Moments:

 ------------------------------------------------------------------------------------
     Multipole            Electronic (a.u.)      Nuclear  (a.u.)        Total (a.u.)
 ------------------------------------------------------------------------------------

 L = 1.  Multiply by 2.5417464519 to convert [e a0] to [Debye]
 Dipole X            :          0.0000000            0.0000000            0.0000000
 Dipole Y            :          0.0000000            0.0000000            0.0000000
 Dipole Z            :         -0.3561332            0.9093317            0.5531985
 Magnitude           :                                                    0.5531985

 L = 2.  Multiply by 1.3450342976 to convert [e a0^2] to [Debye ang]
 Quadrupole XX       :         -7.9489971            0.0000000           -7.9489971
 Quadrupole XY       :          0.0000000            0.0000000            0.0000000
 Quadrupole XZ       :          0.0000000            0.0000000            0.0000000
 Quadrupole YY       :         -7.9489971            0.0000000           -7.9489971
 Quadrupole YZ       :          0.0000000            0.0000000            0.0000000
 Quadrupole ZZ       :        -11.8893332            3.5021095           -8.3872238
 Traceless XX        :          1.3134454           -1.1673698            0.1460755
 Traceless YY        :          1.3134454           -1.1673698            0.1460755
 Traceless ZZ        :         -2.6268907            2.3347397           -0.2921511

 ------------------------------------------------------------------------------------
  ==> Computing MBIS Charges <==

  Electron Count from Grid (Expected Number):  8.00000 ( 8.00000)
  Difference: -0.00000

  MBIS Charges: (a.u.)
   Center  Symbol  Z      Pop.       Charge
      1       C    6    7.073142   -1.073142
      2       H    1    0.926858    0.073142

  MBIS Dipoles: [e a0]
   Center  Symbol  Z        X           Y           Z
      1       C    6    0.000000    0.000000    0.243313
      2       H    1   -0.000000   -0.000000    0.010610

  MBIS Quadrupoles: [e a0^2]
   Center  Symbol  Z      XX        XY        XZ        YY        YZ        ZZ
      1       C    6   -7.3728    0.0000   -0.0000   -7.3728    0.0000   -7.9479
      2       H    1   -0.5761   -0.0000   -0.0000   -0.5761    0.0000   -0.6236

  MBIS Octupoles: [e a0^3]
   Center  Symbol  Z      XXX       XXY       XXZ       XYY       XYZ       XZZ       YYY       YYZ       YZZ       ZZZ
      1       C    6   -0.0000    0.0000    0.4007   -0.0000   -0.0000   -0.0000   -0.0000    0.4007    0.0000   -0.4456
      2       H    1   -0.0000    0.0000   -0.0243   -0.0000    0.0000   -0.0000    0.0000   -0.0243   -0.0000   -0.0907

  MBIS Radial Moments:
   Center  Symbol  Z      [a0^2]      [a0^3]      [a0^4]
      1       C    6   22.693649   65.044304   219.031749
      2       H    1    1.775870    3.572985    8.633507

  MBIS Valence Widths: [a0]
   Center  Symbol  Z     Width
      1       C    6    0.598889
      2       H    1    0.398990

*** tstop() called on Mac.lan at Sun Aug 10 17:35:43 2025
Module time:
	user time   =      10.45 seconds =       0.17 minutes
	system time =       2.48 seconds =       0.04 minutes
	total time  =          1 seconds =       0.02 minutes
Total time:
	user time   =      20.74 seconds =       0.35 minutes
	system time =       4.77 seconds =       0.08 minutes
	total time  =          2 seconds =       0.03 minutes

    Psi4 stopped on: Sunday, 10 August 2025 05:35PM
    Psi4 wall time for execution: 0:00:02.43

*** Psi4 exiting successfully. Buy a developer a beer!
