                               Psi4 1.9.1 release

  ==> Input File <==

--------------------------------------------------------------------------
molecule {
-1 2
C           0.000000           0.000000           0.000000
C           0.000000           0.000000           1.147532
}

set {
basis              cc-pvtz
reference          uks
maxiter            500
DAMPING_PERCENTAGE 1
E_CONVERGENCE      1.0E-8
D_CONVERGENCE      1.0E-8
DIIS_MAX_VECS      400
MBIS_MAXITER       8000
guess              SAP
}

E, wfn = energy('b3lyp', return_wfn=True)
properties('b3lyp','MBIS_CHARGES', wfn=wfn)
wfn.to_file('last_wfn')
--------------------------------------------------------------------------

    Molecular point group: d2h
  Charge       = -1
  Multiplicity = 2
  Basis Set: CC-PVTZ
    Blend: CC-PVTZ
  Basis Set: (CC-PVTZ AUX)
    Blend: CC-PVTZ-JKFIT
  @DF-UKS Final Energy:   -76.03804781130489
    Total Energy =                        -76.0380478113048923
 Dipole X            :          0.0000000            0.0000000            0.0000000
 Dipole Y            :          0.0000000            0.0000000            0.0000000
 Dipole Z            :          0.0000000            0.0000000            0.0000000
 Magnitude           :                                                    0.0000000
    Molecular point group: d2h

    Geometry (in Angstrom), charge = -1, multiplicity = 2:

       Center              X                  Y                   Z               Mass
    ------------   -----------------  -----------------  -----------------  -----------------
         C            0.000000000000     0.000000000000    -0.573766000000    12.000000000000
         C            0.000000000000     0.000000000000     0.573766000000    12.000000000000

  Charge       = -1
  Multiplicity = 2
  Basis Set: CC-PVTZ
    Blend: CC-PVTZ
  Basis Set: (CC-PVTZ AUX)
    Blend: CC-PVTZ-JKFIT

    Orbital Energies [Eh]
    ---------------------

    Alpha Occupied:

       1Ag    -9.885617     1B1u   -9.881573     2Ag    -0.490622
       2B1u   -0.098392     3Ag    -0.032891     1B2u   -0.026638
       1B3u   -0.026638

    Alpha Virtual:

       1B2g    0.321446     1B3g    0.321446     3B1u    0.398108
       4Ag     0.496222     2B2u    0.521571     2B3u    0.521571
       5Ag     0.629460     2B2g    0.654952     2B3g    0.654952
       4B1u    0.816337     6Ag     0.866744     1B1g    0.866745
       5B1u    1.022447     3B3u    1.091980     3B2u    1.091980
       6B1u    1.180207     1Au     1.180207     7Ag     1.405708
       3B2g    1.417464     3B3g    1.417464     7B1u    1.865408
       4B2u    2.226746     4B3u    2.226746     8Ag     2.422623
       4B2g    2.581079     4B3g    2.581079     8B1u    2.642570
       9Ag     2.772266     2B1g    2.772266     5B2u    2.797984
       5B3u    2.797984     6B3u    2.872876     6B2u    2.872876
      10Ag     3.089076     5B3g    3.255342     5B2g    3.255342
       6B2g    3.256884     6B3g    3.256884    11Ag     3.288839
       3B1g    3.288840     9B1u    3.350326     2Au     3.350327
      10B1u    3.725572    12Ag     3.853499     7B3u    3.881724
       7B2u    3.881724    11B1u    3.982484     3Au     3.982485
      12B1u    4.551044     7B2g    5.172459     7B3g    5.172459
      13Ag     5.611904    13B1u   14.944505

    Beta Occupied:

       1Ag    -9.876654     1B1u   -9.872988     2Ag    -0.458778
       2B1u   -0.035196     1B2u   -0.017857     1B3u   -0.017857

    Beta Virtual:

       3Ag     0.098752     1B2g    0.334853     1B3g    0.334853
       3B1u    0.409413     4Ag     0.518388     2B2u    0.526074
       2B3u    0.526074     5Ag     0.652013     2B2g    0.663362
       2B3g    0.663362     4B1u    0.840258     6Ag     0.868896
       1B1g    0.868896     5B1u    1.047558     3B3u    1.115920
       3B2u    1.115920     6B1u    1.187378     1Au     1.187378
       3B2g    1.435516     3B3g    1.435516     7Ag     1.439438
       7B1u    1.901953     4B2u    2.234097     4B3u    2.234097
       8Ag     2.450349     4B2g    2.586783     4B3g    2.586783
       8B1u    2.677226     9Ag     2.782539     2B1g    2.782539
       5B2u    2.799912     5B3u    2.799912     6B3u    2.908467
       6B2u    2.908467    10Ag     3.150464     5B3g    3.258833
       5B2g    3.258833     6B2g    3.302494     6B3g    3.302494
      11Ag     3.303139     3B1g    3.303139     9B1u    3.363680
       2Au     3.363681    10B1u    3.765421    12Ag     3.882646
       7B3u    3.917917     7B2u    3.917917    11B1u    3.996297
       3Au     3.996298    12B1u    4.597365     7B2g    5.200033
       7B3g    5.200033    13Ag     5.635448    13B1u   14.960661

    Final Occupation by Irrep:
             Ag   B1g   B2g   B3g    Au   B1u   B2u   B3u
    DOCC [     2,    0,    0,    0,    0,    2,    1,    1 ]
    SOCC [     1,    0,    0,    0,    0,    0,    0,    0 ]
    NA   [     3,    0,    0,    0,    0,    2,    1,    1 ]
    NB   [     2,    0,    0,    0,    0,    2,    1,    1 ]

  @DF-UKS Final Energy:   -76.03804781130489

   => Energetics <=

    Nuclear Repulsion Energy =             16.6011750296462353
    One-Electron Energy =                -138.1564663031858231
    Two-Electron Energy =                  54.3997923082801691
    DFT Exchange-Correlation Energy =      -8.8825488460454771
    Empirical Dispersion Energy =           0.0000000000000000
    VV10 Nonlocal Energy =                  0.0000000000000000
    Total Energy =                        -76.0380478113048923

  UHF NO Occupations:
  HONO-2 :    2 Ag 1.9997417
  HONO-1 :    2B1u 1.9986292
  HONO-0 :    3 Ag 1.0000000
  LUNO+0 :    3B1u 0.0013708
  LUNO+1 :    4 Ag 0.0002583
  LUNO+2 :    2B3u 0.0000894
  LUNO+3 :    2B2u 0.0000894

Computation Completed

Properties will be evaluated at   0.000000,   0.000000,   0.000000 [a0]

Properties computed using the B3LYP density matrix

 Multipole Moments:

 ------------------------------------------------------------------------------------
     Multipole            Electronic (a.u.)      Nuclear  (a.u.)        Total (a.u.)
 ------------------------------------------------------------------------------------

 L = 1.  Multiply by 2.5417464519 to convert [e a0] to [Debye]
 Dipole X            :          0.0000000            0.0000000            0.0000000
 Dipole Y            :          0.0000000            0.0000000            0.0000000
 Dipole Z            :          0.0000000            0.0000000            0.0000000
 Magnitude           :                                                    0.0000000

 L = 2.  Multiply by 1.3450342976 to convert [e a0^2] to [Debye ang]
 Quadrupole XX       :        -11.1179641            0.0000000          -11.1179641
 Quadrupole XY       :          0.0000000            0.0000000            0.0000000
 Quadrupole XZ       :          0.0000000            0.0000000            0.0000000
 Quadrupole YY       :        -11.1179641            0.0000000          -11.1179641
 Quadrupole YZ       :          0.0000000            0.0000000            0.0000000
 Quadrupole ZZ       :        -27.4171637           14.1074526          -13.3097111
 Traceless XX        :          5.4330665           -4.7024842            0.7305823
 Traceless YY        :          5.4330665           -4.7024842            0.7305823
 Traceless ZZ        :        -10.8661331            9.4049684           -1.4611647

 ------------------------------------------------------------------------------------
  ==> Computing MBIS Charges <==

  Electron Count from Grid (Expected Number): 13.00000 (13.00000)
  Difference: -0.00000

  MBIS Charges: (a.u.)
   Center  Symbol  Z      Pop.       Charge
      1       C    6    6.500000   -0.500000
      2       C    6    6.500000   -0.500000

  MBIS Dipoles: [e a0]
   Center  Symbol  Z        X           Y           Z
      1       C    6   -0.000000   -0.000000   -0.023357
      2       C    6   -0.000000    0.000000    0.023357

  MBIS Quadrupoles: [e a0^2]
   Center  Symbol  Z      XX        XY        XZ        YY        YZ        ZZ
      1       C    6   -5.5590   -0.0000   -0.0000   -5.5590   -0.0000   -6.1177
      2       C    6   -5.5590   -0.0000    0.0000   -5.5590    0.0000   -6.1177

  MBIS Octupoles: [e a0^3]
   Center  Symbol  Z      XXX       XXY       XXZ       XYY       XYZ       XZZ       YYY       YYZ       YZZ       ZZZ
      1       C    6   -0.0000   -0.0000    0.0541   -0.0000   -0.0000   -0.0000    0.0000    0.0541    0.0000    0.5088
      2       C    6   -0.0000   -0.0000   -0.0541   -0.0000    0.0000   -0.0000    0.0000   -0.0541    0.0000   -0.5088

  MBIS Radial Moments:
   Center  Symbol  Z      [a0^2]      [a0^3]      [a0^4]
      1       C    6   17.235660   45.735685   144.311151
      2       C    6   17.235660   45.735685   144.311151

  MBIS Valence Widths: [a0]
   Center  Symbol  Z     Width
      1       C    6    0.549307
      2       C    6    0.549307

*** tstop() called on Mac.lan at Sun Aug 10 17:30:37 2025
Module time:
	user time   =      15.58 seconds =       0.26 minutes
	system time =       2.18 seconds =       0.04 minutes
	total time  =          2 seconds =       0.03 minutes
Total time:
	user time   =      29.77 seconds =       0.50 minutes
	system time =       4.49 seconds =       0.07 minutes
	total time  =          3 seconds =       0.05 minutes

    Psi4 stopped on: Sunday, 10 August 2025 05:30PM
    Psi4 wall time for execution: 0:00:03.27

*** Psi4 exiting successfully. Buy a developer a beer!
