                               Psi4 1.9.1 release

  ==> Input File <==

--------------------------------------------------------------------------
molecule {
-1 2
O           0.000000           0.000000           0.000000
C           0.000000           0.000000           1.460818
}

set {
basis              cc-pvtz
reference          uks
maxiter            500
DAMPING_PERCENTAGE 1
E_CONVERGENCE      1.0E-8
D_CONVERGENCE      1.0E-8
DIIS_MAX_VECS      400
MBIS_MAXITER       8000
guess              read
}

E, wfn = energy('b3lyp', restart_file='last_wfn', return_wfn=True)
properties('b3lyp','MBIS_CHARGES', wfn=wfn)
wfn.to_file('last_wfn')
--------------------------------------------------------------------------

    Molecular point group: c2v
  Charge       = -1
  Multiplicity = 2
  Basis Set: CC-PVTZ
    Blend: CC-PVTZ
  Basis Set: (CC-PVTZ AUX)
    Blend: CC-PVTZ-JKFIT
  @DF-UKS Final Energy:  -113.24114509991821
    Total Energy =                       -113.2411450999182136
 Dipole X            :          0.0000000            0.0000000            0.0000000
 Dipole Y            :          0.0000000            0.0000000            0.0000000
 Dipole Z            :         -0.4069472           -0.0030088           -0.4099560
 Magnitude           :                                                    0.4099560
    Molecular point group: c2v

    Geometry (in Angstrom), charge = -1, multiplicity = 2:

       Center              X                  Y                   Z               Mass
    ------------   -----------------  -----------------  -----------------  -----------------
         O            0.000000000000     0.000000000000    -0.626178584154    15.994914619570
         C            0.000000000000     0.000000000000     0.834639415846    12.000000000000

  Charge       = -1
  Multiplicity = 2
  Basis Set: CC-PVTZ
    Blend: CC-PVTZ
  Basis Set: (CC-PVTZ AUX)
    Blend: CC-PVTZ-JKFIT

    Orbital Energies [Eh]
    ---------------------

    Alpha Occupied:

       1A1   -18.856359     2A1    -9.969605     3A1    -0.663636
       4A1    -0.249306     1B1    -0.073534     5A1    -0.054218
       1B2    -0.053188     2B1     0.112876

    Alpha Virtual:

       2B2     0.203077     6A1     0.382945     3B1     0.548092
       3B2     0.563216     7A1     0.587622     8A1     0.613996
       9A1     0.818332     4B1     0.898254     4B2     0.901233
       1A2     0.934920    10A1     0.937677     5B1     1.064849
       5B2     1.065789    11A1     1.333164    12A1     1.493655
       2A2     1.786146    13A1     1.786722     6B1     2.004604
       6B2     2.008209    14A1     2.279920     7B1     2.303812
       7B2     2.316416    15A1     2.532206     8B1     2.955579
       8B2     2.956441     3A2     3.012804    16A1     3.015178
       9B1     3.182891     9B2     3.189789     4A2     3.229828
      17A1     3.235499    18A1     3.275661    10B1     3.443004
      10B2     3.448817    19A1     3.522966    20A1     4.072922
      11B1     4.079532    11B2     4.082802    21A1     5.412696
      12B1     5.425653    12B2     5.425688     5A2     5.526672
      22A1     5.527155    13B2     5.873917    13B1     5.876607
      23A1     6.375563     6A2     6.525243    24A1     6.526280
      14B1     6.910405    14B2     6.912183    25A1     7.549491
      26A1     8.934811

    Beta Occupied:

       1A1   -18.850064     2A1    -9.957764     3A1    -0.649088
       4A1    -0.218242     1B2    -0.048981     5A1    -0.037060
       1B1    -0.025315

    Beta Virtual:

       2B2     0.214966     2B1     0.248409     6A1     0.390766
       3B2     0.571453     3B1     0.596687     7A1     0.604901
       8A1     0.625204     9A1     0.823758     4B2     0.902204
       4B1     0.916100     1A2     0.966801    10A1     0.967118
       5B2     1.067700     5B1     1.090449    11A1     1.344096
      12A1     1.498623     2A2     1.797163    13A1     1.797289
       6B2     2.010222     6B1     2.030586    14A1     2.290479
       7B2     2.326299     7B1     2.359742    15A1     2.545836
       8B2     3.000062     8B1     3.000190    16A1     3.039132
       3A2     3.039506     9B2     3.194478     9B1     3.223140
      17A1     3.279656     4A2     3.289106    18A1     3.299167
      10B2     3.451883    10B1     3.481171    19A1     3.540836
      20A1     4.083092    11B2     4.085530    11B1     4.107678
      21A1     5.421835    12B2     5.439647    12B1     5.439650
       5A2     5.536231    22A1     5.537004    13B2     5.874668
      13B1     5.892914    23A1     6.383461     6A2     6.547867
      24A1     6.548045    14B2     6.913109    14B1     6.932601
      25A1     7.558791    26A1     8.946027

    Final Occupation by Irrep:
             A1    A2    B1    B2
    DOCC [     5,    0,    1,    1 ]
    SOCC [     0,    0,    1,    0 ]
    NA   [     5,    0,    2,    1 ]
    NB   [     5,    0,    1,    1 ]

  @DF-UKS Final Energy:  -113.24114508369863

   => Energetics <=

    Nuclear Repulsion Energy =             17.3878649579619093
    One-Electron Energy =                -193.5058112329276696
    Two-Electron Energy =                  74.2144435569587841
    DFT Exchange-Correlation Energy =     -11.3376423656916501
    Empirical Dispersion Energy =           0.0000000000000000
    VV10 Nonlocal Energy =                  0.0000000000000000
    Total Energy =                       -113.2411450836986262

  UHF NO Occupations:
  HONO-2 :    1 B1 1.9990843
  HONO-1 :    5 A1 1.9990489
  HONO-0 :    2 B1 1.0000000
  LUNO+0 :    6 A1 0.0009511
  LUNO+1 :    3 B1 0.0009157
  LUNO+2 :    2 B2 0.0003151
  LUNO+3 :    7 A1 0.0000500

Computation Completed

Properties will be evaluated at   0.000000,   0.000000,   0.000000 [a0]

Properties computed using the B3LYP density matrix

 Multipole Moments:

 ------------------------------------------------------------------------------------
     Multipole            Electronic (a.u.)      Nuclear  (a.u.)        Total (a.u.)
 ------------------------------------------------------------------------------------

 L = 1.  Multiply by 2.5417464519 to convert [e a0] to [Debye]
 Dipole X            :          0.0000000            0.0000000            0.0000000
 Dipole Y            :          0.0000000            0.0000000            0.0000000
 Dipole Z            :         -0.4069479           -0.0030088           -0.4099567
 Magnitude           :                                                    0.4099567

 L = 2.  Multiply by 1.3450342976 to convert [e a0^2] to [Debye ang]
 Quadrupole XX       :        -11.2282305            0.0000000          -11.2282305
 Quadrupole XY       :          0.0000000            0.0000000            0.0000000
 Quadrupole XZ       :          0.0000000            0.0000000            0.0000000
 Quadrupole YY       :         -9.7795983            0.0000000           -9.7795983
 Quadrupole YZ       :          0.0000000            0.0000000            0.0000000
 Quadrupole ZZ       :        -40.0947464           26.1278197          -13.9669267
 Traceless XX        :          9.1392945           -8.7092732            0.4300213
 Traceless YY        :         10.5879268           -8.7092732            1.8786536
 Traceless ZZ        :        -19.7272213           17.4185464           -2.3086749

 ------------------------------------------------------------------------------------
  ==> Computing MBIS Charges <==

  Electron Count from Grid (Expected Number): 15.00000 (15.00000)
  Difference: -0.00000

  MBIS Charges: (a.u.)
   Center  Symbol  Z      Pop.       Charge
      1       O    8    8.512039   -0.512039
      2       C    6    6.487960   -0.487960

  MBIS Dipoles: [e a0]
   Center  Symbol  Z        X           Y           Z
      1       O    8    0.000000   -0.000000    0.076384
      2       C    6   -0.000000   -0.000000   -0.322610

  MBIS Quadrupoles: [e a0^2]
   Center  Symbol  Z      XX        XY        XZ        YY        YZ        ZZ
      1       O    8   -4.5832   -0.0000   -0.0000   -4.3765    0.0000   -4.5002
      2       C    6   -6.6451    0.0000    0.0000   -5.4031    0.0000   -6.3374

  MBIS Octupoles: [e a0^3]
   Center  Symbol  Z      XXX       XXY       XXZ       XYY       XYZ       XZZ       YYY       YYZ       YZZ       ZZZ
      1       O    8   -0.0000   -0.0000    0.0888   -0.0000    0.0000   -0.0000   -0.0000    0.1028    0.0000    0.0286
      2       C    6   -0.0000   -0.0000   -0.6688   -0.0000    0.0000   -0.0000    0.0000   -0.1244    0.0000   -0.1382

  MBIS Radial Moments:
   Center  Symbol  Z      [a0^2]      [a0^3]      [a0^4]
      1       O    8   13.459911   26.724291   63.430320
      2       C    6   18.385549   49.894770   159.159387

  MBIS Valence Widths: [a0]
   Center  Symbol  Z     Width
      1       O    8    0.405642
      2       C    6    0.571522

*** tstop() called on Mac.lan at Sun Aug 10 17:43:26 2025
Module time:
	user time   =       3.88 seconds =       0.06 minutes
	system time =       1.57 seconds =       0.03 minutes
	total time  =          1 seconds =       0.02 minutes
Total time:
	user time   =      18.94 seconds =       0.32 minutes
	system time =       3.13 seconds =       0.05 minutes
	total time  =          2 seconds =       0.03 minutes

    Psi4 stopped on: Sunday, 10 August 2025 05:43PM
    Psi4 wall time for execution: 0:00:02.14

*** Psi4 exiting successfully. Buy a developer a beer!
