                               Psi4 1.9.1 release

  ==> Input File <==

--------------------------------------------------------------------------
molecule {
-1 2
C           0.000000           0.000000           0.000000
C           0.000000           0.000000           0.734677
}

set {
basis              cc-pvtz
reference          uks
maxiter            500
DAMPING_PERCENTAGE 1
E_CONVERGENCE      1.0E-8
D_CONVERGENCE      1.0E-8
DIIS_MAX_VECS      400
MBIS_MAXITER       8000
guess              read
}

E, wfn = energy('b3lyp', restart_file='last_wfn', return_wfn=True)
properties('b3lyp','MBIS_CHARGES', wfn=wfn)
wfn.to_file('last_wfn')
--------------------------------------------------------------------------

    Molecular point group: d2h
  Charge       = -1
  Multiplicity = 2
  Basis Set: CC-PVTZ
    Blend: CC-PVTZ
  Basis Set: (CC-PVTZ AUX)
    Blend: CC-PVTZ-JKFIT
  @DF-UKS Final Energy:   -74.79833688108319
    Total Energy =                        -74.7983368810831877
 Dipole X            :          0.0000000            0.0000000            0.0000000
 Dipole Y            :          0.0000000            0.0000000            0.0000000
 Dipole Z            :          0.0000000           -0.0000000           -0.0000000
 Magnitude           :                                                    0.0000000
    Molecular point group: d2h

    Geometry (in Angstrom), charge = -1, multiplicity = 2:

       Center              X                  Y                   Z               Mass
    ------------   -----------------  -----------------  -----------------  -----------------
         C            0.000000000000     0.000000000000    -0.367338500000    12.000000000000
         C            0.000000000000     0.000000000000     0.367338500000    12.000000000000

  Charge       = -1
  Multiplicity = 2
  Basis Set: CC-PVTZ
    Blend: CC-PVTZ
  Basis Set: (CC-PVTZ AUX)
    Blend: CC-PVTZ-JKFIT

    Orbital Energies [Eh]
    ---------------------

    Alpha Occupied:

       1Ag    -9.942289     1B1u   -9.801301     2Ag    -0.446075
       1B2u   -0.144173     1B3u   -0.144173     3Ag     0.004704
       2B1u    0.005505

    Alpha Virtual:

       3B1u    0.406533     1B2g    0.418479     1B3g    0.418479
       2B3u    0.476188     2B2u    0.476188     4Ag     0.477374
       5Ag     0.683352     2B2g    0.793912     2B3g    0.793912
       1B1g    0.901892     6Ag     0.901892     4B1u    0.937614
       3B3u    1.232622     3B2u    1.232622     1Au     1.264731
       5B1u    1.264731     6B1u    1.278309     7Ag     1.334335
       3B2g    1.506174     3B3g    1.506174     4B3u    2.012555
       4B2u    2.012555     8Ag     2.501582     7B1u    2.708325
       5B3u    2.790551     5B2u    2.790551     4B2g    2.845052
       4B3g    2.845052     2B1g    2.846268     9Ag     2.846268
       8B1u    3.038726     6B2u    3.098980     6B3u    3.098980
       2Au     3.198249     9B1u    3.198249    10Ag     3.343240
       3B1g    3.537549    11Ag     3.537549     5B2g    3.549038
       5B3g    3.549038     6B2g    3.561790     6B3g    3.561790
      12Ag     3.872289    10B1u    4.244408     7B2u    4.838084
       7B3u    4.838084     3Au     4.981262    11B1u    4.981263
      13Ag     5.751471     7B3g    6.204294     7B2g    6.204294
      12B1u    7.136260    13B1u   20.603430

    Beta Occupied:

       1Ag    -9.923202     1B1u   -9.786315     2Ag    -0.403599
       1B2u   -0.130585     1B3u   -0.130585     2B1u    0.062152

    Beta Virtual:

       3Ag     0.156283     3B1u    0.419432     1B2g    0.426217
       1B3g    0.426217     2B3u    0.482368     2B2u    0.482368
       4Ag     0.501988     5Ag     0.707196     2B2g    0.809062
       2B3g    0.809062     1B1g    0.903474     6Ag     0.903474
       4B1u    0.958338     3B3u    1.252976     3B2u    1.252976
       1Au     1.271121     5B1u    1.271121     6B1u    1.299446
       7Ag     1.373046     3B2g    1.519558     3B3g    1.519558
       4B3u    2.025810     4B2u    2.025810     8Ag     2.535451
       7B1u    2.770193     5B3u    2.790323     5B2u    2.790323
       2B1g    2.853433     9Ag     2.853434     4B2g    2.856668
       4B3g    2.856668     8B1u    3.063514     6B2u    3.147947
       6B3u    3.147947     2Au     3.216171     9B1u    3.216171
      10Ag     3.386354     5B2g    3.552258     5B3g    3.552258
       3B1g    3.556082    11Ag     3.556082     6B2g    3.596466
       6B3g    3.596466    12Ag     3.907120    10B1u    4.275436
       7B2u    4.866256     7B3u    4.866256     3Au     4.989111
      11B1u    4.989112    13Ag     5.791783     7B3g    6.230904
       7B2g    6.230904    12B1u    7.191707    13B1u   20.622895

    Final Occupation by Irrep:
             Ag   B1g   B2g   B3g    Au   B1u   B2u   B3u
    DOCC [     2,    0,    0,    0,    0,    2,    1,    1 ]
    SOCC [     1,    0,    0,    0,    0,    0,    0,    0 ]
    NA   [     3,    0,    0,    0,    0,    2,    1,    1 ]
    NB   [     2,    0,    0,    0,    0,    2,    1,    1 ]

  @DF-UKS Final Energy:   -74.79833688069043

   => Energetics <=

    Nuclear Repulsion Energy =             25.9302789989614482
    One-Electron Energy =                -153.9351878158235252
    Two-Electron Energy =                  62.5813348536177969
    DFT Exchange-Correlation Energy =      -9.3747629174461569
    Empirical Dispersion Energy =           0.0000000000000000
    VV10 Nonlocal Energy =                  0.0000000000000000
    Total Energy =                        -74.7983368806904423

  UHF NO Occupations:
  HONO-2 :    2 Ag 1.9995639
  HONO-1 :    2B1u 1.9978960
  HONO-0 :    3 Ag 1.0000000
  LUNO+0 :    3B1u 0.0021040
  LUNO+1 :    4 Ag 0.0004361
  LUNO+2 :    2B3u 0.0000648
  LUNO+3 :    2B2u 0.0000648

Computation Completed

Properties will be evaluated at   0.000000,   0.000000,   0.000000 [a0]

Properties computed using the B3LYP density matrix

 Multipole Moments:

 ------------------------------------------------------------------------------------
     Multipole            Electronic (a.u.)      Nuclear  (a.u.)        Total (a.u.)
 ------------------------------------------------------------------------------------

 L = 1.  Multiply by 2.5417464519 to convert [e a0] to [Debye]
 Dipole X            :          0.0000000            0.0000000            0.0000000
 Dipole Y            :          0.0000000            0.0000000            0.0000000
 Dipole Z            :          0.0000000           -0.0000000           -0.0000000
 Magnitude           :                                                    0.0000000

 L = 2.  Multiply by 1.3450342976 to convert [e a0^2] to [Debye ang]
 Quadrupole XX       :         -9.3540511            0.0000000           -9.3540511
 Quadrupole XY       :          0.0000000            0.0000000            0.0000000
 Quadrupole XZ       :          0.0000000            0.0000000            0.0000000
 Quadrupole YY       :         -9.3540511            0.0000000           -9.3540511
 Quadrupole YZ       :          0.0000000            0.0000000            0.0000000
 Quadrupole ZZ       :        -19.2212869            5.7824499          -13.4388370
 Traceless XX        :          3.2890786           -1.9274833            1.3615953
 Traceless YY        :          3.2890786           -1.9274833            1.3615953
 Traceless ZZ        :         -6.5781572            3.8549666           -2.7231906

 ------------------------------------------------------------------------------------
  ==> Computing MBIS Charges <==

  Electron Count from Grid (Expected Number): 13.00000 (13.00000)
  Difference: -0.00000

  MBIS Charges: (a.u.)
   Center  Symbol  Z      Pop.       Charge
      1       C    6    6.500000   -0.500000
      2       C    6    6.500000   -0.500000

  MBIS Dipoles: [e a0]
   Center  Symbol  Z        X           Y           Z
      1       C    6   -0.000000   -0.000000    0.173060
      2       C    6   -0.000000    0.000000   -0.173060

  MBIS Quadrupoles: [e a0^2]
   Center  Symbol  Z      XX        XY        XZ        YY        YZ        ZZ
      1       C    6   -4.6770    0.0000   -0.0000   -4.6770   -0.0000   -6.2382
      2       C    6   -4.6770    0.0000    0.0000   -4.6770    0.0000   -6.2382

  MBIS Octupoles: [e a0^3]
   Center  Symbol  Z      XXX       XXY       XXZ       XYY       XYZ       XZZ       YYY       YYZ       YZZ       ZZZ
      1       C    6   -0.0000   -0.0000    0.6992   -0.0000    0.0000   -0.0000    0.0000    0.6992    0.0000    2.7239
      2       C    6   -0.0000   -0.0000   -0.6992   -0.0000   -0.0000   -0.0000    0.0000   -0.6992    0.0000   -2.7239

  MBIS Radial Moments:
   Center  Symbol  Z      [a0^2]      [a0^3]      [a0^4]
      1       C    6   15.592269   40.962099   130.826394
      2       C    6   15.592269   40.962099   130.826394

  MBIS Valence Widths: [a0]
   Center  Symbol  Z     Width
      1       C    6    0.515133
      2       C    6    0.515133

*** tstop() called on Mac.lan at Sun Aug 10 17:30:06 2025
Module time:
	user time   =       3.50 seconds =       0.06 minutes
	system time =       2.67 seconds =       0.04 minutes
	total time  =          0 seconds =       0.00 minutes
Total time:
	user time   =      18.48 seconds =       0.31 minutes
	system time =       4.65 seconds =       0.08 minutes
	total time  =          2 seconds =       0.03 minutes

    Psi4 stopped on: Sunday, 10 August 2025 05:30PM
    Psi4 wall time for execution: 0:00:02.25

*** Psi4 exiting successfully. Buy a developer a beer!
