                               Psi4 1.9.1 release

  ==> Input File <==

--------------------------------------------------------------------------
molecule {
-1 2
H           0.000000           0.000000           0.000000
H           0.000000           0.000000           0.898895
}

set {
basis              cc-pvtz
reference          uks
maxiter            500
DAMPING_PERCENTAGE 1
E_CONVERGENCE      1.0E-8
D_CONVERGENCE      1.0E-8
DIIS_MAX_VECS      400
MBIS_MAXITER       8000
guess              read
}

E, wfn = energy('b3lyp', restart_file='last_wfn', return_wfn=True)
properties('b3lyp','MBIS_CHARGES', wfn=wfn)
wfn.to_file('last_wfn')
--------------------------------------------------------------------------

    Molecular point group: d2h
  Charge       = -1
  Multiplicity = 2
  Basis Set: CC-PVTZ
    Blend: CC-PVTZ
  Basis Set: (CC-PVTZ AUX)
    Blend: CC-PVTZ-JKFIT
  @DF-UKS Final Energy:    -1.05526726256602
    Total Energy =                         -1.0552672625660195
 Dipole X            :          0.0000000            0.0000000            0.0000000
 Dipole Y            :          0.0000000            0.0000000            0.0000000
 Dipole Z            :          0.0000000            0.0000000            0.0000000
 Magnitude           :                                                    0.0000000
    Molecular point group: d2h

    Geometry (in Angstrom), charge = -1, multiplicity = 2:

       Center              X                  Y                   Z               Mass
    ------------   -----------------  -----------------  -----------------  -----------------
         H            0.000000000000     0.000000000000    -0.449447500000     1.007825032230
         H            0.000000000000     0.000000000000     0.449447500000     1.007825032230

  Charge       = -1
  Multiplicity = 2
  Basis Set: CC-PVTZ
    Blend: CC-PVTZ
  Basis Set: (CC-PVTZ AUX)
    Blend: CC-PVTZ-JKFIT

    Orbital Energies [Eh]
    ---------------------

    Alpha Occupied:

       1Ag    -0.108041     1B1u    0.204096

    Alpha Virtual:

       2Ag     0.439497     2B1u    0.660248     1B2u    0.795218
       1B3u    0.795218     3Ag     1.135934     1B3g    1.177789
       1B2g    1.177789     3B1u    1.589081     4B1u    2.451831
       4Ag     2.466593     1B1g    3.210151     5Ag     3.210151
       2B2u    3.307963     2B3u    3.307963     6Ag     3.550016
       1Au     3.944614     5B1u    3.944614     2B3g    3.985338
       2B2g    3.985338     3B2u    3.995055     3B3u    3.995055
       6B1u    4.240189     3B2g    5.189511     3B3g    5.189511
       7Ag     5.227156     7B1u    6.357285

    Beta Occupied:

       1Ag    -0.082327

    Beta Virtual:

       1B1u    0.299119     2Ag     0.457392     2B1u    0.702490
       1B2u    0.805471     1B3u    0.805471     3Ag     1.177468
       1B3g    1.210555     1B2g    1.210555     3B1u    1.626483
       4Ag     2.481428     4B1u    2.484098     1B1g    3.220871
       5Ag     3.220871     2B2u    3.313657     2B3u    3.313657
       6Ag     3.582254     1Au     3.964888     5B1u    3.964888
       2B3g    4.019441     2B2g    4.019441     3B2u    4.026039
       3B3u    4.026039     6B1u    4.278890     3B2g    5.210210
       3B3g    5.210210     7Ag     5.254944     7B1u    6.377800

    Final Occupation by Irrep:
             Ag   B1g   B2g   B3g    Au   B1u   B2u   B3u
    DOCC [     1,    0,    0,    0,    0,    0,    0,    0 ]
    SOCC [     0,    0,    0,    0,    0,    1,    0,    0 ]
    NA   [     1,    0,    0,    0,    0,    1,    0,    0 ]
    NB   [     1,    0,    0,    0,    0,    0,    0,    0 ]

  @DF-UKS Final Energy:    -1.05526726444046

   => Energetics <=

    Nuclear Repulsion Energy =              0.5886974681915018
    One-Electron Energy =                  -2.7928254718259029
    Two-Electron Energy =                   1.8519849060067946
    DFT Exchange-Correlation Energy =      -0.7031241668128518
    Empirical Dispersion Energy =           0.0000000000000000
    VV10 Nonlocal Energy =                  0.0000000000000000
    Total Energy =                         -1.0552672644404584

  UHF NO Occupations:
  HONO-1 :    1 Ag 1.9996069
  HONO-0 :    1B1u 1.0000000
  LUNO+0 :    2 Ag 0.0003931
  LUNO+1 :    3 Ag 0.0000000
  LUNO+2 :    4 Ag 0.0000000
  LUNO+3 :    2B1u 0.0000000

Computation Completed

Properties will be evaluated at   0.000000,   0.000000,   0.000000 [a0]

Properties computed using the B3LYP density matrix

 Multipole Moments:

 ------------------------------------------------------------------------------------
     Multipole            Electronic (a.u.)      Nuclear  (a.u.)        Total (a.u.)
 ------------------------------------------------------------------------------------

 L = 1.  Multiply by 2.5417464519 to convert [e a0] to [Debye]
 Dipole X            :          0.0000000            0.0000000            0.0000000
 Dipole Y            :          0.0000000            0.0000000            0.0000000
 Dipole Z            :          0.0000000            0.0000000            0.0000000
 Magnitude           :                                                    0.0000000

 L = 2.  Multiply by 1.3450342976 to convert [e a0^2] to [Debye ang]
 Quadrupole XX       :         -4.2412713            0.0000000           -4.2412713
 Quadrupole XY       :          0.0000000            0.0000000            0.0000000
 Quadrupole XZ       :          0.0000000            0.0000000            0.0000000
 Quadrupole YY       :         -4.2412713            0.0000000           -4.2412713
 Quadrupole YZ       :          0.0000000            0.0000000            0.0000000
 Quadrupole ZZ       :         -9.9365885            1.4427320           -8.4938565
 Traceless XX        :          1.8984391           -0.4809107            1.4175284
 Traceless YY        :          1.8984391           -0.4809107            1.4175284
 Traceless ZZ        :         -3.7968781            0.9618213           -2.8350568

 ------------------------------------------------------------------------------------
  ==> Computing MBIS Charges <==

  Electron Count from Grid (Expected Number):  3.00000 ( 3.00000)
  Difference:  0.00000

  MBIS Charges: (a.u.)
   Center  Symbol  Z      Pop.       Charge
      1       H    1    1.500000   -0.500000
      2       H    1    1.500000   -0.500000

  MBIS Dipoles: [e a0]
   Center  Symbol  Z        X           Y           Z
      1       H    1    0.000000   -0.000000    0.309024
      2       H    1    0.000000   -0.000000   -0.309024

  MBIS Quadrupoles: [e a0^2]
   Center  Symbol  Z      XX        XY        XZ        YY        YZ        ZZ
      1       H    1   -2.1206    0.0000    0.0000   -2.1206   -0.0000   -3.3613
      2       H    1   -2.1206   -0.0000    0.0000   -2.1206    0.0000   -3.3613

  MBIS Octupoles: [e a0^3]
   Center  Symbol  Z      XXX       XXY       XXZ       XYY       XYZ       XZZ       YYY       YYZ       YZZ       ZZZ
      1       H    1    0.0000   -0.0000    0.8312    0.0000    0.0000    0.0000   -0.0000    0.8312    0.0000    1.6571
      2       H    1    0.0000   -0.0000   -0.8312    0.0000    0.0000    0.0000    0.0000   -0.8312   -0.0000   -1.6571

  MBIS Radial Moments:
   Center  Symbol  Z      [a0^2]      [a0^3]      [a0^4]
      1       H    1    7.602589   24.763981   93.478833
      2       H    1    7.602589   24.763981   93.478833

  MBIS Valence Widths: [a0]
   Center  Symbol  Z     Width
      1       H    1    0.640764
      2       H    1    0.640764

*** tstop() called on Mac.lan at Sun Aug 10 17:25:46 2025
Module time:
	user time   =       0.52 seconds =       0.01 minutes
	system time =       1.46 seconds =       0.02 minutes
	total time  =          1 seconds =       0.02 minutes
Total time:
	user time   =       1.88 seconds =       0.03 minutes
	system time =       3.28 seconds =       0.05 minutes
	total time  =          1 seconds =       0.02 minutes

    Psi4 stopped on: Sunday, 10 August 2025 05:25PM
    Psi4 wall time for execution: 0:00:00.81

*** Psi4 exiting successfully. Buy a developer a beer!
