                               Psi4 1.9.1 release

  ==> Input File <==

--------------------------------------------------------------------------
molecule {
-1 1
N           0.000000           0.000000           0.000000
C           0.000000           0.000000           1.700878
}

set {
basis              cc-pvtz
reference          uks
maxiter            500
DAMPING_PERCENTAGE 1
E_CONVERGENCE      1.0E-8
D_CONVERGENCE      1.0E-8
DIIS_MAX_VECS      400
MBIS_MAXITER       8000
guess              read
}

E, wfn = energy('b3lyp', restart_file='last_wfn', return_wfn=True)
properties('b3lyp','MBIS_CHARGES', wfn=wfn)
wfn.to_file('last_wfn')
--------------------------------------------------------------------------

    Molecular point group: c2v
  Charge       = -1
  Multiplicity = 1
  Basis Set: CC-PVTZ
    Blend: CC-PVTZ
  Basis Set: (CC-PVTZ AUX)
    Blend: CC-PVTZ-JKFIT
  @DF-UKS Final Energy:   -92.67560250176295
    Total Energy =                        -92.6756025017629526
 Dipole X            :          0.0000000            0.0000000            0.0000000
 Dipole Y            :          0.0000000            0.0000000            0.0000000
 Dipole Z            :         -0.0521846            0.0022798           -0.0499048
 Magnitude           :                                                    0.0499048
    Molecular point group: c2v

    Geometry (in Angstrom), charge = -1, multiplicity = 1:

       Center              X                  Y                   Z               Mass
    ------------   -----------------  -----------------  -----------------  -----------------
         N            0.000000000000     0.000000000000    -0.784927812632    14.003074004430
         C            0.000000000000     0.000000000000     0.915950187368    12.000000000000

  Charge       = -1
  Multiplicity = 1
  Basis Set: CC-PVTZ
    Blend: CC-PVTZ
  Basis Set: (CC-PVTZ AUX)
    Blend: CC-PVTZ-JKFIT

    Orbital Energies [Eh]
    ---------------------

    Alpha Occupied:

       1A1   -14.090563     2A1   -10.010507     3A1    -0.460725
       4A1    -0.225261     5A1    -0.019555     1B2     0.005748
       1B1     0.005748

    Alpha Virtual:

       2B2     0.180330     2B1     0.180330     6A1     0.341658
       7A1     0.541194     3B1     0.558143     3B2     0.558143
       8A1     0.608655     9A1     0.716996     4B2     0.762765
       4B1     0.762765     1A2     0.928547    10A1     0.928547
       5B2     0.990257     5B1     0.990257    11A1     1.123945
      12A1     1.318697    13A1     1.362045     2A2     1.362046
       6B2     1.610797     6B1     1.610797    14A1     1.793989
       7B2     2.246474     7B1     2.246474    15A1     2.505395
       8B2     2.921185     8B1     2.921185     9B1     2.951394
       9B2     2.951394    16A1     2.952258     3A2     2.952675
      17A1     2.952675    18A1     3.224009     4A2     3.224015
      10B2     3.235651    10B1     3.235651    19A1     3.404187
      11B2     3.410971    11B1     3.410971    20A1     3.691030
      21A1     4.181811    12B2     4.188198    12B1     4.188198
      22A1     4.258422     5A2     4.258424    13B1     4.534774
      13B2     4.534774     6A2     4.754551    23A1     4.754571
      24A1     4.866735    14B2     5.070480    14B1     5.070480
      25A1     5.808899    26A1     6.627590

    Beta Occupied:

       1A1   -14.090563     2A1   -10.010507     3A1    -0.460725
       4A1    -0.225261     5A1    -0.019555     1B2     0.005748
       1B1     0.005748

    Beta Virtual:

       2B2     0.180330     2B1     0.180330     6A1     0.341658
       7A1     0.541194     3B1     0.558143     3B2     0.558143
       8A1     0.608655     9A1     0.716996     4B2     0.762765
       4B1     0.762765     1A2     0.928547    10A1     0.928547
       5B2     0.990257     5B1     0.990257    11A1     1.123945
      12A1     1.318697    13A1     1.362045     2A2     1.362046
       6B2     1.610797     6B1     1.610797    14A1     1.793989
       7B2     2.246474     7B1     2.246474    15A1     2.505395
       8B2     2.921185     8B1     2.921185     9B1     2.951394
       9B2     2.951394    16A1     2.952258     3A2     2.952675
      17A1     2.952675    18A1     3.224009     4A2     3.224015
      10B2     3.235651    10B1     3.235651    19A1     3.404187
      11B2     3.410971    11B1     3.410971    20A1     3.691030
      21A1     4.181811    12B2     4.188198    12B1     4.188198
      22A1     4.258422     5A2     4.258424    13B1     4.534774
      13B2     4.534774     6A2     4.754551    23A1     4.754571
      24A1     4.866735    14B2     5.070480    14B1     5.070480
      25A1     5.808899    26A1     6.627590

    Final Occupation by Irrep:
             A1    A2    B1    B2
    DOCC [     5,    0,    1,    1 ]
    SOCC [     0,    0,    0,    0 ]
    NA   [     5,    0,    1,    1 ]
    NB   [     5,    0,    1,    1 ]

  @DF-UKS Final Energy:   -92.67560250171161

   => Energetics <=

    Nuclear Repulsion Energy =             13.0670411682319365
    One-Electron Energy =                -154.8050604023533197
    Two-Electron Energy =                  58.8968815770811673
    DFT Exchange-Correlation Energy =      -9.8344648446713947
    Empirical Dispersion Energy =           0.0000000000000000
    VV10 Nonlocal Energy =                  0.0000000000000000
    Total Energy =                        -92.6756025017116372

  UHF NO Occupations:
  HONO-2 :    3 A1 2.0000000
  HONO-1 :    4 A1 2.0000000
  HONO-0 :    5 A1 2.0000000
  LUNO+0 :    6 A1 0.0000000
  LUNO+1 :    7 A1 0.0000000
  LUNO+2 :    8 A1 0.0000000
  LUNO+3 :    9 A1 0.0000000

Computation Completed

Properties will be evaluated at   0.000000,   0.000000,   0.000000 [a0]

Properties computed using the B3LYP density matrix

 Multipole Moments:

 ------------------------------------------------------------------------------------
     Multipole            Electronic (a.u.)      Nuclear  (a.u.)        Total (a.u.)
 ------------------------------------------------------------------------------------

 L = 1.  Multiply by 2.5417464519 to convert [e a0] to [Debye]
 Dipole X            :          0.0000000            0.0000000            0.0000000
 Dipole Y            :          0.0000000            0.0000000            0.0000000
 Dipole Z            :         -0.0521846            0.0022798           -0.0499048
 Magnitude           :                                                    0.0499048

 L = 2.  Multiply by 1.3450342976 to convert [e a0^2] to [Debye ang]
 Quadrupole XX       :        -11.2037296            0.0000000          -11.2037296
 Quadrupole XY       :          0.0000000            0.0000000            0.0000000
 Quadrupole XZ       :          0.0000000            0.0000000            0.0000000
 Quadrupole YY       :        -11.2037296            0.0000000          -11.2037296
 Quadrupole YZ       :          0.0000000            0.0000000            0.0000000
 Quadrupole ZZ       :        -48.2541449           33.3772080          -14.8769369
 Traceless XX        :         12.3501384          -11.1257360            1.2244024
 Traceless YY        :         12.3501384          -11.1257360            1.2244024
 Traceless ZZ        :        -24.7002769           22.2514720           -2.4488049

 ------------------------------------------------------------------------------------
  ==> Computing MBIS Charges <==

  Electron Count from Grid (Expected Number): 14.00000 (14.00000)
  Difference: -0.00000

  MBIS Charges: (a.u.)
   Center  Symbol  Z      Pop.       Charge
      1       N    7    7.577313   -0.577313
      2       C    6    6.422687   -0.422687

  MBIS Dipoles: [e a0]
   Center  Symbol  Z        X           Y           Z
      1       N    7   -0.000000   -0.000000   -0.024443
      2       C    6   -0.000000   -0.000000   -0.150164

  MBIS Quadrupoles: [e a0^2]
   Center  Symbol  Z      XX        XY        XZ        YY        YZ        ZZ
      1       N    7   -5.3544    0.0000   -0.0000   -5.3544   -0.0000   -5.5060
      2       C    6   -5.8493    0.0000    0.0000   -5.8493    0.0000   -6.3870

  MBIS Octupoles: [e a0^3]
   Center  Symbol  Z      XXX       XXY       XXZ       XYY       XYZ       XZZ       YYY       YYZ       YZZ       ZZZ
      1       N    7   -0.0000   -0.0000   -0.2470   -0.0000    0.0000   -0.0000   -0.0000   -0.2470    0.0000   -0.4560
      2       C    6   -0.0000   -0.0000    0.1133   -0.0000   -0.0000   -0.0000    0.0000    0.1133   -0.0000    0.0475

  MBIS Radial Moments:
   Center  Symbol  Z      [a0^2]      [a0^3]      [a0^4]
      1       N    7   16.214882   37.667330   103.688145
      2       C    6   18.085631   48.954820   155.946621

  MBIS Valence Widths: [a0]
   Center  Symbol  Z     Width
      1       N    7    0.481969
      2       C    6    0.571041

*** tstop() called on Mac.lan at Sun Aug 10 17:41:14 2025
Module time:
	user time   =       3.17 seconds =       0.05 minutes
	system time =       2.30 seconds =       0.04 minutes
	total time  =          1 seconds =       0.02 minutes
Total time:
	user time   =      17.27 seconds =       0.29 minutes
	system time =       4.26 seconds =       0.07 minutes
	total time  =          2 seconds =       0.03 minutes

    Psi4 stopped on: Sunday, 10 August 2025 05:41PM
    Psi4 wall time for execution: 0:00:02.08

*** Psi4 exiting successfully. Buy a developer a beer!
