                               Psi4 1.9.1 release

  ==> Input File <==

--------------------------------------------------------------------------
molecule {
-1 1
O           0.000000           0.000000           0.000000
H           0.000000           0.000000           1.000788
}

set {
basis              cc-pvtz
reference          uks
maxiter            500
DAMPING_PERCENTAGE 1
E_CONVERGENCE      1.0E-8
D_CONVERGENCE      1.0E-8
DIIS_MAX_VECS      400
MBIS_MAXITER       8000
guess              read
}

E, wfn = energy('b3lyp', restart_file='last_wfn', return_wfn=True)
properties('b3lyp','MBIS_CHARGES', wfn=wfn)
wfn.to_file('last_wfn')
--------------------------------------------------------------------------

    Molecular point group: c2v
  Charge       = -1
  Multiplicity = 1
  Basis Set: CC-PVTZ
    Blend: CC-PVTZ
  Basis Set: (CC-PVTZ AUX)
    Blend: CC-PVTZ-JKFIT
  @DF-UKS Final Energy:   -75.78974982220380
    Total Energy =                        -75.7897498222038024
 Dipole X            :          0.0000000            0.0000000            0.0000000
 Dipole Y            :          0.0000000            0.0000000            0.0000000
 Dipole Z            :         -0.4892567            0.8823116            0.3930549
 Magnitude           :                                                    0.3930549
    Molecular point group: c2v

    Geometry (in Angstrom), charge = -1, multiplicity = 1:

       Center              X                  Y                   Z               Mass
    ------------   -----------------  -----------------  -----------------  -----------------
         O            0.000000000000     0.000000000000    -0.059320981148    15.994914619570
         H            0.000000000000     0.000000000000     0.941467018852     1.007825032230

  Charge       = -1
  Multiplicity = 1
  Basis Set: CC-PVTZ
    Blend: CC-PVTZ
  Basis Set: (CC-PVTZ AUX)
    Blend: CC-PVTZ-JKFIT

    Orbital Energies [Eh]
    ---------------------

    Alpha Occupied:

       1A1   -18.676267     2A1    -0.512994     3A1    -0.024157
       1B1     0.116591     1B2     0.116591

    Alpha Virtual:

       4A1     0.312928     5A1     0.703587     6A1     0.856729
       2B2     0.940621     2B1     0.940621     3B2     1.045441
       3B1     1.045441     7A1     1.269102     8A1     1.586552
       9A1     1.884326     1A2     1.884326     4B1     2.164363
       4B2     2.164363    10A1     2.292693    11A1     2.808573
      12A1     3.576351     2A2     3.576352     5B1     3.766191
       5B2     3.766191     6B1     4.033357     6B2     4.033357
      13A1     4.044792     7B1     4.450424     7B2     4.450424
      14A1     4.670003    15A1     5.115472     8B2     5.585811
       8B1     5.585811    16A1     5.798611     3A2     5.798611
       4A2     6.673874    17A1     6.673875     9B2     6.719715
       9B1     6.719715    18A1     6.753961    10B1     7.007000
      10B2     7.007000    19A1     7.402780    20A1    10.356559

    Beta Occupied:

       1A1   -18.676267     2A1    -0.512994     3A1    -0.024157
       1B1     0.116591     1B2     0.116591

    Beta Virtual:

       4A1     0.312928     5A1     0.703587     6A1     0.856729
       2B2     0.940621     2B1     0.940621     3B2     1.045441
       3B1     1.045441     7A1     1.269102     8A1     1.586552
       9A1     1.884326     1A2     1.884326     4B1     2.164363
       4B2     2.164363    10A1     2.292693    11A1     2.808573
      12A1     3.576351     2A2     3.576352     5B1     3.766191
       5B2     3.766191     6B1     4.033357     6B2     4.033357
      13A1     4.044792     7B1     4.450424     7B2     4.450424
      14A1     4.670003    15A1     5.115472     8B2     5.585811
       8B1     5.585811    16A1     5.798611     3A2     5.798611
       4A2     6.673874    17A1     6.673875     9B2     6.719715
       9B1     6.719715    18A1     6.753961    10B1     7.007000
      10B2     7.007000    19A1     7.402780    20A1    10.356559

    Final Occupation by Irrep:
             A1    A2    B1    B2
    DOCC [     3,    0,    1,    1 ]
    SOCC [     0,    0,    0,    0 ]
    NA   [     3,    0,    1,    1 ]
    NB   [     3,    0,    1,    1 ]

  @DF-UKS Final Energy:   -75.78974982231684

   => Energetics <=

    Nuclear Repulsion Energy =              4.2300843788694511
    One-Electron Energy =                -116.7262607844281774
    Two-Electron Energy =                  44.1583689227947787
    DFT Exchange-Correlation Energy =      -7.4519423395528905
    Empirical Dispersion Energy =           0.0000000000000000
    VV10 Nonlocal Energy =                  0.0000000000000000
    Total Energy =                        -75.7897498223168355

  UHF NO Occupations:
  HONO-2 :    2 A1 2.0000000
  HONO-1 :    1 B1 2.0000000
  HONO-0 :    3 A1 2.0000000
  LUNO+0 :    4 A1 0.0000000
  LUNO+1 :    5 A1 0.0000000
  LUNO+2 :    6 A1 0.0000000
  LUNO+3 :    7 A1 0.0000000

Computation Completed

Properties will be evaluated at   0.000000,   0.000000,   0.000000 [a0]

Properties computed using the B3LYP density matrix

 Multipole Moments:

 ------------------------------------------------------------------------------------
     Multipole            Electronic (a.u.)      Nuclear  (a.u.)        Total (a.u.)
 ------------------------------------------------------------------------------------

 L = 1.  Multiply by 2.5417464519 to convert [e a0] to [Debye]
 Dipole X            :          0.0000000            0.0000000            0.0000000
 Dipole Y            :          0.0000000            0.0000000            0.0000000
 Dipole Z            :         -0.4892567            0.8823116            0.3930549
 Magnitude           :                                                    0.3930549

 L = 2.  Multiply by 1.3450342976 to convert [e a0^2] to [Debye ang]
 Quadrupole XX       :         -6.3462158            0.0000000           -6.3462158
 Quadrupole XY       :          0.0000000            0.0000000            0.0000000
 Quadrupole XZ       :          0.0000000            0.0000000            0.0000000
 Quadrupole YY       :         -6.3462158            0.0000000           -6.3462158
 Quadrupole YZ       :          0.0000000            0.0000000            0.0000000
 Quadrupole ZZ       :         -8.4869568            3.2657816           -5.2211753
 Traceless XX        :          0.7135804           -1.0885939           -0.3750135
 Traceless YY        :          0.7135804           -1.0885939           -0.3750135
 Traceless ZZ        :         -1.4271607            2.1771877            0.7500270

 ------------------------------------------------------------------------------------
  ==> Computing MBIS Charges <==

  Electron Count from Grid (Expected Number): 10.00000 (10.00000)
  Difference: -0.00000

  MBIS Charges: (a.u.)
   Center  Symbol  Z      Pop.       Charge
      1       O    8    9.203651   -1.203651
      2       H    1    0.796349    0.203651

  MBIS Dipoles: [e a0]
   Center  Symbol  Z        X           Y           Z
      1       O    8   -0.000000   -0.000000   -0.117020
      2       H    1   -0.000000    0.000000    0.012828

  MBIS Quadrupoles: [e a0^2]
   Center  Symbol  Z      XX        XY        XZ        YY        YZ        ZZ
      1       O    8   -5.7503   -0.0000    0.0000   -5.7503    0.0000   -5.3310
      2       H    1   -0.5959   -0.0000    0.0000   -0.5959    0.0000   -0.5916

  MBIS Octupoles: [e a0^3]
   Center  Symbol  Z      XXX       XXY       XXZ       XYY       XYZ       XZZ       YYY       YYZ       YZZ       ZZZ
      1       O    8   -0.0000   -0.0000   -0.1726   -0.0000   -0.0000    0.0000   -0.0000   -0.1726   -0.0000   -0.9009
      2       H    1    0.0000    0.0000   -0.0000    0.0000    0.0000    0.0000   -0.0000   -0.0000    0.0000   -0.0137

  MBIS Radial Moments:
   Center  Symbol  Z      [a0^2]      [a0^3]      [a0^4]
      1       O    8   16.831549   35.638355   89.390696
      2       H    1    1.783417    3.854646    9.889732

  MBIS Valence Widths: [a0]
   Center  Symbol  Z     Width
      1       O    8    0.433191
      2       H    1    0.430382

*** tstop() called on Mac.lan at Sun Aug 10 17:38:00 2025
Module time:
	user time   =       3.93 seconds =       0.07 minutes
	system time =       1.21 seconds =       0.02 minutes
	total time  =          1 seconds =       0.02 minutes
Total time:
	user time   =      13.14 seconds =       0.22 minutes
	system time =       3.46 seconds =       0.06 minutes
	total time  =          2 seconds =       0.03 minutes

    Psi4 stopped on: Sunday, 10 August 2025 05:38PM
    Psi4 wall time for execution: 0:00:01.62

*** Psi4 exiting successfully. Buy a developer a beer!
