                               Psi4 1.9.1 release

  ==> Input File <==

--------------------------------------------------------------------------
molecule {
-1 2
H           0.000000           0.000000           0.000000
H           0.000000           0.000000           1.690919
}

set {
basis              cc-pvtz
reference          uks
maxiter            500
DAMPING_PERCENTAGE 1
E_CONVERGENCE      1.0E-8
D_CONVERGENCE      1.0E-8
DIIS_MAX_VECS      400
MBIS_MAXITER       8000
guess              read
}

E, wfn = energy('b3lyp', restart_file='last_wfn', return_wfn=True)
properties('b3lyp','MBIS_CHARGES', wfn=wfn)
wfn.to_file('last_wfn')
--------------------------------------------------------------------------

    Molecular point group: d2h
  Charge       = -1
  Multiplicity = 2
  Basis Set: CC-PVTZ
    Blend: CC-PVTZ
  Basis Set: (CC-PVTZ AUX)
    Blend: CC-PVTZ-JKFIT
  @DF-UKS Final Energy:    -1.05614023142318
    Total Energy =                         -1.0561402314231778
 Dipole X            :          0.0000000            0.0000000            0.0000000
 Dipole Y            :          0.0000000            0.0000000            0.0000000
 Dipole Z            :          0.0000000            0.0000000            0.0000000
 Magnitude           :                                                    0.0000000
    Molecular point group: d2h

    Geometry (in Angstrom), charge = -1, multiplicity = 2:

       Center              X                  Y                   Z               Mass
    ------------   -----------------  -----------------  -----------------  -----------------
         H            0.000000000000     0.000000000000    -0.845459500000     1.007825032230
         H            0.000000000000     0.000000000000     0.845459500000     1.007825032230

  Charge       = -1
  Multiplicity = 2
  Basis Set: CC-PVTZ
    Blend: CC-PVTZ
  Basis Set: (CC-PVTZ AUX)
    Blend: CC-PVTZ-JKFIT

    Orbital Energies [Eh]
    ---------------------

    Alpha Occupied:

       1Ag    -0.031055     1B1u    0.092875

    Alpha Virtual:

       2Ag     0.507522     2B1u    0.529551     1B2u    0.811257
       1B3u    0.811257     3Ag     0.870207     1B3g    1.004981
       1B2g    1.004981     3B1u    1.357727     4Ag     2.457448
       4B1u    2.646218     5Ag     3.259339     2B2u    3.322436
       2B3u    3.322436     6Ag     3.478835     1B1g    3.478837
       5B1u    3.528640     1Au     3.528642     2B3g    3.681708
       2B2g    3.681708     6B1u    3.864688     3B2u    3.874235
       3B3u    3.874235     3B3g    4.022241     3B2g    4.022241
       7Ag     4.113721     7B1u    4.749058

    Beta Occupied:

       1Ag     0.027115

    Beta Virtual:

       1B1u    0.207371     2Ag     0.535082     2B1u    0.578709
       1B2u    0.839835     1B3u    0.839835     3Ag     0.906947
       1B2g    1.047551     1B3g    1.047551     3B1u    1.401530
       4Ag     2.533993     4B1u    2.720330     5Ag     3.299809
       2B2u    3.369235     2B3u    3.369235     6Ag     3.527733
       1B1g    3.527734     5B1u    3.578220     1Au     3.578222
       2B3g    3.725366     2B2g    3.725366     6B1u    3.917395
       3B2u    3.938143     3B3u    3.938143     3B3g    4.091297
       3B2g    4.091297     7Ag     4.176054     7B1u    4.804932

    Final Occupation by Irrep:
             Ag   B1g   B2g   B3g    Au   B1u   B2u   B3u
    DOCC [     1,    0,    0,    0,    0,    0,    0,    0 ]
    SOCC [     0,    0,    0,    0,    0,    1,    0,    0 ]
    NA   [     1,    0,    0,    0,    0,    1,    0,    0 ]
    NB   [     1,    0,    0,    0,    0,    0,    0,    0 ]

  @DF-UKS Final Energy:    -1.05614023112234

   => Energetics <=

    Nuclear Repulsion Energy =              0.3129524304061875
    One-Electron Energy =                  -2.3446406519466310
    Two-Electron Energy =                   1.6393016828277847
    DFT Exchange-Correlation Energy =      -0.6637536924096799
    Empirical Dispersion Energy =           0.0000000000000000
    VV10 Nonlocal Energy =                  0.0000000000000000
    Total Energy =                         -1.0561402311223385

  UHF NO Occupations:
  HONO-1 :    1 Ag 1.9971255
  HONO-0 :    1B1u 1.0000000
  LUNO+0 :    2 Ag 0.0028745
  LUNO+1 :    3 Ag 0.0000000
  LUNO+2 :    4 Ag 0.0000000
  LUNO+3 :    2B1u 0.0000000

Computation Completed

Properties will be evaluated at   0.000000,   0.000000,   0.000000 [a0]

Properties computed using the B3LYP density matrix

 Multipole Moments:

 ------------------------------------------------------------------------------------
     Multipole            Electronic (a.u.)      Nuclear  (a.u.)        Total (a.u.)
 ------------------------------------------------------------------------------------

 L = 1.  Multiply by 2.5417464519 to convert [e a0] to [Debye]
 Dipole X            :          0.0000000            0.0000000            0.0000000
 Dipole Y            :          0.0000000            0.0000000            0.0000000
 Dipole Z            :          0.0000000            0.0000000            0.0000000
 Magnitude           :                                                    0.0000000

 L = 2.  Multiply by 1.3450342976 to convert [e a0^2] to [Debye ang]
 Quadrupole XX       :         -4.3961917            0.0000000           -4.3961917
 Quadrupole XY       :          0.0000000            0.0000000            0.0000000
 Quadrupole XZ       :          0.0000000            0.0000000            0.0000000
 Quadrupole YY       :         -4.3961917            0.0000000           -4.3961917
 Quadrupole YZ       :          0.0000000            0.0000000            0.0000000
 Quadrupole ZZ       :        -13.0469369            5.1052069           -7.9417300
 Traceless XX        :          2.8835817           -1.7017356            1.1818461
 Traceless YY        :          2.8835817           -1.7017356            1.1818461
 Traceless ZZ        :         -5.7671635            3.4034713           -2.3636922

 ------------------------------------------------------------------------------------
  ==> Computing MBIS Charges <==

  Electron Count from Grid (Expected Number):  3.00000 ( 3.00000)
  Difference: -0.00000

  MBIS Charges: (a.u.)
   Center  Symbol  Z      Pop.       Charge
      1       H    1    1.500000   -0.500000
      2       H    1    1.500000   -0.500000

  MBIS Dipoles: [e a0]
   Center  Symbol  Z        X           Y           Z
      1       H    1   -0.000000   -0.000000    0.120320
      2       H    1    0.000000   -0.000000   -0.120320

  MBIS Quadrupoles: [e a0^2]
   Center  Symbol  Z      XX        XY        XZ        YY        YZ        ZZ
      1       H    1   -2.1981   -0.0000   -0.0000   -2.1981    0.0000   -2.3101
      2       H    1   -2.1981   -0.0000   -0.0000   -2.1981   -0.0000   -2.3101

  MBIS Octupoles: [e a0^3]
   Center  Symbol  Z      XXX       XXY       XXZ       XYY       XYZ       XZZ       YYY       YYZ       YZZ       ZZZ
      1       H    1   -0.0000   -0.0000    0.2007    0.0000    0.0000   -0.0000   -0.0000    0.2007   -0.0000    0.3453
      2       H    1    0.0000   -0.0000   -0.2007   -0.0000   -0.0000    0.0000   -0.0000   -0.2007   -0.0000   -0.3453

  MBIS Radial Moments:
   Center  Symbol  Z      [a0^2]      [a0^3]      [a0^4]
      1       H    1    6.706287   20.002399   69.369107
      2       H    1    6.706287   20.002399   69.369107

  MBIS Valence Widths: [a0]
   Center  Symbol  Z     Width
      1       H    1    0.610994
      2       H    1    0.610994

*** tstop() called on Mac.lan at Sun Aug 10 17:26:38 2025
Module time:
	user time   =       0.56 seconds =       0.01 minutes
	system time =       1.30 seconds =       0.02 minutes
	total time  =          0 seconds =       0.00 minutes
Total time:
	user time   =       1.32 seconds =       0.02 minutes
	system time =       3.48 seconds =       0.06 minutes
	total time  =          1 seconds =       0.02 minutes

    Psi4 stopped on: Sunday, 10 August 2025 05:26PM
    Psi4 wall time for execution: 0:00:00.68

*** Psi4 exiting successfully. Buy a developer a beer!
