                               Psi4 1.9.1 release

  ==> Input File <==

--------------------------------------------------------------------------
molecule {
-1 2
N           0.000000           0.000000           0.000000
N           0.000000           0.000000           1.085429
}

set {
basis              cc-pvtz
reference          uks
maxiter            500
DAMPING_PERCENTAGE 1
E_CONVERGENCE      1.0E-8
D_CONVERGENCE      1.0E-8
DIIS_MAX_VECS      400
MBIS_MAXITER       8000
guess              SAP
}

E, wfn = energy('b3lyp', return_wfn=True)
properties('b3lyp','MBIS_CHARGES', wfn=wfn)
wfn.to_file('last_wfn')
--------------------------------------------------------------------------

    Molecular point group: d2h
  Charge       = -1
  Multiplicity = 2
  Basis Set: CC-PVTZ
    Blend: CC-PVTZ
  Basis Set: (CC-PVTZ AUX)
    Blend: CC-PVTZ-JKFIT
  @DF-UKS Final Energy:  -109.46062670509313
    Total Energy =                       -109.4606267050931336
 Dipole X            :          0.0000000            0.0000000            0.0000000
 Dipole Y            :          0.0000000            0.0000000            0.0000000
 Dipole Z            :          0.0000000            0.0000000            0.0000000
 Magnitude           :                                                    0.0000000
    Molecular point group: d2h

    Geometry (in Angstrom), charge = -1, multiplicity = 2:

       Center              X                  Y                   Z               Mass
    ------------   -----------------  -----------------  -----------------  -----------------
         N            0.000000000000     0.000000000000    -0.542714500000    14.003074004430
         N            0.000000000000     0.000000000000     0.542714500000    14.003074004430

  Charge       = -1
  Multiplicity = 2
  Basis Set: CC-PVTZ
    Blend: CC-PVTZ
  Basis Set: (CC-PVTZ AUX)
    Blend: CC-PVTZ-JKFIT

    Orbital Energies [Eh]
    ---------------------

    Alpha Occupied:

       1Ag   -13.996006     1B1u  -13.994146     2Ag    -0.746288
       2B1u   -0.197156     1B3u   -0.123345     1B2u   -0.104065
       3Ag    -0.071416     1B2g    0.235914

    Alpha Virtual:

       1B3g    0.327260     3B1u    0.553079     2B3u    0.684668
       2B2u    0.685622     4Ag     0.690125     2B2g    0.812407
       5Ag     0.814382     2B3g    0.829115     4B1u    1.038511
       1B1g    1.177108     6Ag     1.178222     5B1u    1.194049
       3B3u    1.449510     3B2u    1.450912     1Au     1.598784
       6B1u    1.600418     3B2g    2.005890     7Ag     2.008086
       3B3g    2.009850     7B1u    2.290783     4B3u    3.101854
       4B2u    3.110844     8Ag     3.297559     4B2g    3.456718
       4B3g    3.464560     8B1u    3.710876     2B1g    3.840954
       9Ag     3.841904     5B3u    3.963326     5B2u    3.963375
       6B2u    3.981180     6B3u    3.983612    10Ag     4.354317
       5B2g    4.453765     5B3g    4.453972     3B1g    4.726482
      11Ag     4.729082     6B2g    4.828268     6B3g    4.833982
       2Au     4.856840     9B1u    4.859503    10B1u    5.026307
       3Au     5.310999    11B1u    5.312204     7B3u    5.389661
       7B2u    5.390392    12Ag     5.449164    12B1u    6.115926
       7B3g    6.839985     7B2g    6.840245    13Ag     6.938130
      13B1u   16.741433

    Beta Occupied:

       1Ag   -13.986314     1B1u  -13.984376     2Ag    -0.729822
       2B1u   -0.163587     1B2u   -0.095871     1B3u   -0.063584
       3Ag    -0.053592

    Beta Virtual:

       1B3g    0.338361     1B2g    0.369367     3B1u    0.559931
       2B2u    0.689457     4Ag     0.695345     2B3u    0.708877
       5Ag     0.824496     2B3g    0.836531     2B2g    0.858376
       4B1u    1.053752     1B1g    1.193968     6Ag     1.194233
       5B1u    1.212279     3B2u    1.453312     3B3u    1.478898
       1Au     1.628597     6B1u    1.628776     3B3g    2.013646
       7Ag     2.017209     3B2g    2.035890     7B1u    2.302114
       4B2u    3.118420     4B3u    3.147631     8Ag     3.306264
       4B3g    3.473037     4B2g    3.504130     8B1u    3.728686
       2B1g    3.854861     9Ag     3.855206     5B2u    3.980695
       5B3u    3.988092     6B2u    3.992390     6B3u    4.010146
      10Ag     4.365479     5B3g    4.485225     5B2g    4.485245
       3B1g    4.767322    11Ag     4.767486     6B3g    4.837187
       6B2g    4.863286     9B1u    4.898681     2Au     4.899328
      10B1u    5.040817     3Au     5.332024    11B1u    5.332794
       7B2u    5.393712     7B3u    5.422255    12Ag     5.465689
      12B1u    6.128322     7B3g    6.843661     7B2g    6.871034
      13Ag     6.951819    13B1u   16.755107

    Final Occupation by Irrep:
             Ag   B1g   B2g   B3g    Au   B1u   B2u   B3u
    DOCC [     3,    0,    0,    0,    0,    2,    1,    1 ]
    SOCC [     0,    0,    1,    0,    0,    0,    0,    0 ]
    NA   [     3,    0,    1,    0,    0,    2,    1,    1 ]
    NB   [     3,    0,    0,    0,    0,    2,    1,    1 ]

  @DF-UKS Final Energy:  -109.46062670509313

   => Energetics <=

    Nuclear Repulsion Energy =             23.8888801780954836
    One-Electron Energy =                -200.4304967110526832
    Two-Electron Energy =                  78.4773133957179851
    DFT Exchange-Correlation Energy =     -11.3963235678539281
    Empirical Dispersion Energy =           0.0000000000000000
    VV10 Nonlocal Energy =                  0.0000000000000000
    Total Energy =                       -109.4606267050931336

  UHF NO Occupations:
  HONO-2 :    2B1u 1.9997056
  HONO-1 :    1B3u 1.9993698
  HONO-0 :    1B2g 1.0000000
  LUNO+0 :    2B3u 0.0006302
  LUNO+1 :    3B1u 0.0002944
  LUNO+2 :    4 Ag 0.0001536
  LUNO+3 :    2B2u 0.0000243

Computation Completed

Properties will be evaluated at   0.000000,   0.000000,   0.000000 [a0]

Properties computed using the B3LYP density matrix

 Multipole Moments:

 ------------------------------------------------------------------------------------
     Multipole            Electronic (a.u.)      Nuclear  (a.u.)        Total (a.u.)
 ------------------------------------------------------------------------------------

 L = 1.  Multiply by 2.5417464519 to convert [e a0] to [Debye]
 Dipole X            :          0.0000000            0.0000000            0.0000000
 Dipole Y            :          0.0000000            0.0000000            0.0000000
 Dipole Z            :          0.0000000            0.0000000            0.0000000
 Magnitude           :                                                    0.0000000

 L = 2.  Multiply by 1.3450342976 to convert [e a0^2] to [Debye ang]
 Quadrupole XX       :        -10.2761234            0.0000000          -10.2761234
 Quadrupole XY       :          0.0000000            0.0000000            0.0000000
 Quadrupole XZ       :          0.0000000            0.0000000            0.0000000
 Quadrupole YY       :         -9.0255704            0.0000000           -9.0255704
 Quadrupole YZ       :          0.0000000            0.0000000            0.0000000
 Quadrupole ZZ       :        -27.5234910           14.7254515          -12.7980395
 Traceless XX        :          5.3322715           -4.9084838            0.4237877
 Traceless YY        :          6.5828246           -4.9084838            1.6743407
 Traceless ZZ        :        -11.9150961            9.8169677           -2.0981284

 ------------------------------------------------------------------------------------
  ==> Computing MBIS Charges <==

  Electron Count from Grid (Expected Number): 15.00000 (15.00000)
  Difference: -0.00000

  MBIS Charges: (a.u.)
   Center  Symbol  Z      Pop.       Charge
      1       N    7    7.500000   -0.500000
      2       N    7    7.500000   -0.500000

  MBIS Dipoles: [e a0]
   Center  Symbol  Z        X           Y           Z
      1       N    7   -0.000000   -0.000000    0.252562
      2       N    7    0.000000   -0.000000   -0.252562

  MBIS Quadrupoles: [e a0^2]
   Center  Symbol  Z      XX        XY        XZ        YY        YZ        ZZ
      1       N    7   -5.1381    0.0000   -0.0000   -4.5128   -0.0000   -5.3551
      2       N    7   -5.1381    0.0000    0.0000   -4.5128    0.0000   -5.3551

  MBIS Octupoles: [e a0^3]
   Center  Symbol  Z      XXX       XXY       XXZ       XYY       XYZ       XZZ       YYY       YYZ       YZZ       ZZZ
      1       N    7   -0.0000   -0.0000    0.5966   -0.0000    0.0000    0.0000   -0.0000    0.2744   -0.0000    0.4707
      2       N    7   -0.0000   -0.0000   -0.5966    0.0000   -0.0000    0.0000   -0.0000   -0.2744    0.0000   -0.4707

  MBIS Radial Moments:
   Center  Symbol  Z      [a0^2]      [a0^3]      [a0^4]
      1       N    7   15.005911   33.958407   91.403109
      2       N    7   15.005911   33.958407   91.403109

  MBIS Valence Widths: [a0]
   Center  Symbol  Z     Width
      1       N    7    0.464724
      2       N    7    0.464724

*** tstop() called on Mac.lan at Sun Aug 10 17:33:23 2025
Module time:
	user time   =      12.88 seconds =       0.21 minutes
	system time =       2.00 seconds =       0.03 minutes
	total time  =          1 seconds =       0.02 minutes
Total time:
	user time   =      27.66 seconds =       0.46 minutes
	system time =       4.50 seconds =       0.07 minutes
	total time  =          3 seconds =       0.05 minutes

    Psi4 stopped on: Sunday, 10 August 2025 05:33PM
    Psi4 wall time for execution: 0:00:03.08

*** Psi4 exiting successfully. Buy a developer a beer!
