                               Psi4 1.9.1 release

  ==> Input File <==

--------------------------------------------------------------------------
molecule {
-1 2
C           0.000000           0.000000           0.000000
C           0.000000           0.000000           1.471918
}

set {
basis              cc-pvtz
reference          uks
maxiter            500
DAMPING_PERCENTAGE 1
E_CONVERGENCE      1.0E-8
D_CONVERGENCE      1.0E-8
DIIS_MAX_VECS      400
MBIS_MAXITER       8000
guess              read
}

E, wfn = energy('b3lyp', restart_file='last_wfn', return_wfn=True)
properties('b3lyp','MBIS_CHARGES', wfn=wfn)
wfn.to_file('last_wfn')
--------------------------------------------------------------------------

    Molecular point group: d2h
  Charge       = -1
  Multiplicity = 2
  Basis Set: CC-PVTZ
    Blend: CC-PVTZ
  Basis Set: (CC-PVTZ AUX)
    Blend: CC-PVTZ-JKFIT
  @DF-UKS Final Energy:   -76.01594157002641
    Total Energy =                        -76.0159415700264134
 Dipole X            :          0.0000000            0.0000000            0.0000000
 Dipole Y            :          0.0000000            0.0000000            0.0000000
 Dipole Z            :          0.0000000            0.0000000            0.0000000
 Magnitude           :                                                    0.0000000
    Molecular point group: d2h

    Geometry (in Angstrom), charge = -1, multiplicity = 2:

       Center              X                  Y                   Z               Mass
    ------------   -----------------  -----------------  -----------------  -----------------
         C            0.000000000000     0.000000000000    -0.735959000000    12.000000000000
         C            0.000000000000     0.000000000000     0.735959000000    12.000000000000

  Charge       = -1
  Multiplicity = 2
  Basis Set: CC-PVTZ
    Blend: CC-PVTZ
  Basis Set: (CC-PVTZ AUX)
    Blend: CC-PVTZ-JKFIT

    Orbital Energies [Eh]
    ---------------------

    Alpha Occupied:

       1Ag    -9.967479     1B1u   -9.967062     2Ag    -0.425177
       2B1u   -0.161234     3Ag    -0.042439     1B2u    0.003872
       1B3u    0.003872

    Alpha Virtual:

       1B2g    0.236610     1B3g    0.236610     3B1u    0.381245
       4Ag     0.511011     2B2u    0.537523     2B3u    0.537523
       2B2g    0.609142     2B3g    0.609142     5Ag     0.609879
       4B1u    0.657648     5B1u    0.857443     1B1g    0.860191
       6Ag     0.860191     3B3u    0.970667     3B2u    0.970667
       1Au     1.104313     6B1u    1.104313     3B2g    1.376652
       3B3g    1.376652     7Ag     1.399505     7B1u    1.430500
       4B2u    2.215639     4B3u    2.215639     8Ag     2.297755
       4B3g    2.390984     4B2g    2.390984     2B1g    2.701496
       9Ag     2.701497     5B3u    2.722009     5B2u    2.722009
       8B1u    2.745594     6B2u    2.868189     6B3u    2.868189
      10Ag     2.884959     5B3g    3.090318     5B2g    3.090318
       3B1g    3.224019    11Ag     3.224022     9B1u    3.284390
       2Au     3.300133    10B1u    3.300136     6B2g    3.361117
       6B3g    3.361117     3Au     3.546338    11B1u    3.546340
       7B2u    3.554439     7B3u    3.554439    12B1u    3.930439
      12Ag     4.094532    13Ag     4.287489     7B2g    4.397951
       7B3g    4.397951    13B1u    8.659982

    Beta Occupied:

       1Ag    -9.959488     1B1u   -9.959200     2Ag    -0.393939
       2B1u   -0.104117     1B2u    0.011436     1B3u    0.011436

    Beta Virtual:

       3Ag     0.089603     1B2g    0.248229     1B3g    0.248229
       3B1u    0.391044     4Ag     0.537952     2B2u    0.541588
       2B3u    0.541588     2B2g    0.614014     2B3g    0.614014
       5Ag     0.626524     4B1u    0.711626     1B1g    0.861606
       6Ag     0.861606     5B1u    0.866344     3B3u    0.994643
       3B2u    0.994643     1Au     1.108429     6B1u    1.108429
       3B2g    1.397272     3B3g    1.397272     7Ag     1.431307
       7B1u    1.464418     4B2u    2.222881     4B3u    2.222881
       8Ag     2.332797     4B3g    2.395550     4B2g    2.395550
       2B1g    2.720026     9Ag     2.720026     5B3u    2.752321
       5B2u    2.752321     8B1u    2.780582     6B2u    2.869167
       6B3u    2.869167    10Ag     2.940199     5B3g    3.091100
       5B2g    3.091100     3B1g    3.229283    11Ag     3.229286
       2Au     3.301919     9B1u    3.301921    10B1u    3.324982
       6B2g    3.404406     6B3g    3.404406     3Au     3.566499
      11B1u    3.566501     7B2u    3.594266     7B3u    3.594266
      12B1u    3.979555    12Ag     4.123152    13Ag     4.320598
       7B2g    4.426534     7B3g    4.426534    13B1u    8.677463

    Final Occupation by Irrep:
             Ag   B1g   B2g   B3g    Au   B1u   B2u   B3u
    DOCC [     2,    0,    0,    0,    0,    2,    1,    1 ]
    SOCC [     1,    0,    0,    0,    0,    0,    0,    0 ]
    NA   [     3,    0,    0,    0,    0,    2,    1,    1 ]
    NB   [     2,    0,    0,    0,    0,    2,    1,    1 ]

  @DF-UKS Final Energy:   -76.01594156863396

   => Energetics <=

    Nuclear Repulsion Energy =             12.9425549413214576
    One-Electron Energy =                -130.7023757858831061
    Two-Electron Energy =                  50.4304444672584324
    DFT Exchange-Correlation Energy =      -8.6865651913307502
    Empirical Dispersion Energy =           0.0000000000000000
    VV10 Nonlocal Energy =                  0.0000000000000000
    Total Energy =                        -76.0159415686339628

  UHF NO Occupations:
  HONO-2 :    2 Ag 1.9996522
  HONO-1 :    2B1u 1.9979160
  HONO-0 :    3 Ag 1.0000000
  LUNO+0 :    3B1u 0.0020840
  LUNO+1 :    4 Ag 0.0003478
  LUNO+2 :    2B3u 0.0001106
  LUNO+3 :    2B2u 0.0001106

Computation Completed

Properties will be evaluated at   0.000000,   0.000000,   0.000000 [a0]

Properties computed using the B3LYP density matrix

 Multipole Moments:

 ------------------------------------------------------------------------------------
     Multipole            Electronic (a.u.)      Nuclear  (a.u.)        Total (a.u.)
 ------------------------------------------------------------------------------------

 L = 1.  Multiply by 2.5417464519 to convert [e a0] to [Debye]
 Dipole X            :          0.0000000            0.0000000            0.0000000
 Dipole Y            :          0.0000000            0.0000000            0.0000000
 Dipole Z            :          0.0000000            0.0000000            0.0000000
 Magnitude           :                                                    0.0000000

 L = 2.  Multiply by 1.3450342976 to convert [e a0^2] to [Debye ang]
 Quadrupole XX       :        -12.0914183            0.0000000          -12.0914183
 Quadrupole XY       :          0.0000000            0.0000000            0.0000000
 Quadrupole XZ       :          0.0000000            0.0000000            0.0000000
 Quadrupole YY       :        -12.0914183            0.0000000          -12.0914183
 Quadrupole YZ       :          0.0000000            0.0000000            0.0000000
 Quadrupole ZZ       :        -36.8222426           23.2105922          -13.6116504
 Traceless XX        :          8.2436081           -7.7368641            0.5067440
 Traceless YY        :          8.2436081           -7.7368641            0.5067440
 Traceless ZZ        :        -16.4872162           15.4737282           -1.0134881

 ------------------------------------------------------------------------------------
  ==> Computing MBIS Charges <==

  Electron Count from Grid (Expected Number): 13.00000 (13.00000)
  Difference:  0.00000

  MBIS Charges: (a.u.)
   Center  Symbol  Z      Pop.       Charge
      1       C    6    6.500000   -0.500000
      2       C    6    6.500000   -0.500000

  MBIS Dipoles: [e a0]
   Center  Symbol  Z        X           Y           Z
      1       C    6   -0.000000    0.000000   -0.108307
      2       C    6   -0.000000    0.000000    0.108307

  MBIS Quadrupoles: [e a0^2]
   Center  Symbol  Z      XX        XY        XZ        YY        YZ        ZZ
      1       C    6   -6.0457    0.0000   -0.0000   -6.0457   -0.0000   -6.1400
      2       C    6   -6.0457    0.0000    0.0000   -6.0457    0.0000   -6.1400

  MBIS Octupoles: [e a0^3]
   Center  Symbol  Z      XXX       XXY       XXZ       XYY       XYZ       XZZ       YYY       YYZ       YZZ       ZZZ
      1       C    6   -0.0000    0.0000   -0.3811   -0.0000    0.0000   -0.0000    0.0000   -0.3811    0.0000   -0.7611
      2       C    6   -0.0000    0.0000    0.3811   -0.0000   -0.0000   -0.0000    0.0000    0.3811    0.0000    0.7611

  MBIS Radial Moments:
   Center  Symbol  Z      [a0^2]      [a0^3]      [a0^4]
      1       C    6   18.231392   49.392003   158.170755
      2       C    6   18.231392   49.392003   158.170755

  MBIS Valence Widths: [a0]
   Center  Symbol  Z     Width
      1       C    6    0.567570
      2       C    6    0.567570

*** tstop() called on Mac.lan at Sun Aug 10 17:31:09 2025
Module time:
	user time   =      13.85 seconds =       0.23 minutes
	system time =       1.87 seconds =       0.03 minutes
	total time  =          2 seconds =       0.03 minutes
Total time:
	user time   =      58.56 seconds =       0.98 minutes
	system time =       4.15 seconds =       0.07 minutes
	total time  =          7 seconds =       0.12 minutes

    Psi4 stopped on: Sunday, 10 August 2025 05:31PM
    Psi4 wall time for execution: 0:00:06.33

*** Psi4 exiting successfully. Buy a developer a beer!
