                               Psi4 1.9.1 release

  ==> Input File <==

--------------------------------------------------------------------------
molecule {
-1 2
H           0.000000           0.000000           0.000000
H           0.000000           0.000000           0.953517
}

set {
basis              cc-pvtz
reference          uks
maxiter            500
DAMPING_PERCENTAGE 1
E_CONVERGENCE      1.0E-8
D_CONVERGENCE      1.0E-8
DIIS_MAX_VECS      400
MBIS_MAXITER       8000
guess              read
}

E, wfn = energy('b3lyp', restart_file='last_wfn', return_wfn=True)
properties('b3lyp','MBIS_CHARGES', wfn=wfn)
wfn.to_file('last_wfn')
--------------------------------------------------------------------------

    Molecular point group: d2h
  Charge       = -1
  Multiplicity = 2
  Basis Set: CC-PVTZ
    Blend: CC-PVTZ
  Basis Set: (CC-PVTZ AUX)
    Blend: CC-PVTZ-JKFIT
  @DF-UKS Final Energy:    -1.05668622702607
    Total Energy =                         -1.0566862270260731
 Dipole X            :          0.0000000            0.0000000            0.0000000
 Dipole Y            :          0.0000000            0.0000000            0.0000000
 Dipole Z            :          0.0000000            0.0000000            0.0000000
 Magnitude           :                                                    0.0000000
    Molecular point group: d2h

    Geometry (in Angstrom), charge = -1, multiplicity = 2:

       Center              X                  Y                   Z               Mass
    ------------   -----------------  -----------------  -----------------  -----------------
         H            0.000000000000     0.000000000000    -0.476758500000     1.007825032230
         H            0.000000000000     0.000000000000     0.476758500000     1.007825032230

  Charge       = -1
  Multiplicity = 2
  Basis Set: CC-PVTZ
    Blend: CC-PVTZ
  Basis Set: (CC-PVTZ AUX)
    Blend: CC-PVTZ-JKFIT

    Orbital Energies [Eh]
    ---------------------

    Alpha Occupied:

       1Ag    -0.098275     1B1u    0.197015

    Alpha Virtual:

       2Ag     0.446219     2B1u    0.642423     1B3u    0.794236
       1B2u    0.794236     3Ag     1.117804     1B3g    1.165808
       1B2g    1.165808     3B1u    1.577221     4Ag     2.491597
       4B1u    2.523461     1B1g    3.228081     5Ag     3.228081
       2B2u    3.276187     2B3u    3.276187     6Ag     3.496298
       1Au     3.895565     5B1u    3.895565     3B2u    3.967421
       3B3u    3.967421     2B3g    3.998961     2B2g    3.998961
       6B1u    4.160454     3B3g    5.041788     3B2g    5.041788
       7Ag     5.086659     7B1u    6.263340

    Beta Occupied:

       1Ag    -0.069342

    Beta Virtual:

       1B1u    0.292769     2Ag     0.463851     2B1u    0.686703
       1B3u    0.805992     1B2u    0.805992     3Ag     1.159900
       1B3g    1.200225     1B2g    1.200225     3B1u    1.615943
       4Ag     2.510743     4B1u    2.558490     1B1g    3.241818
       5Ag     3.241818     2B2u    3.284131     2B3u    3.284131
       6Ag     3.528208     1Au     3.918436     5B1u    3.918436
       3B2u    4.001509     3B3u    4.001509     2B3g    4.035719
       2B2g    4.035719     6B1u    4.203520     3B3g    5.065028
       3B2g    5.065028     7Ag     5.118458     7B1u    6.285413

    Final Occupation by Irrep:
             Ag   B1g   B2g   B3g    Au   B1u   B2u   B3u
    DOCC [     1,    0,    0,    0,    0,    0,    0,    0 ]
    SOCC [     0,    0,    0,    0,    0,    1,    0,    0 ]
    NA   [     1,    0,    0,    0,    0,    1,    0,    0 ]
    NB   [     1,    0,    0,    0,    0,    0,    0,    0 ]

  @DF-UKS Final Energy:    -1.05668622658661

   => Energetics <=

    Nuclear Repulsion Energy =              0.5549740703836430
    One-Electron Energy =                  -2.7481550110390898
    Two-Electron Energy =                   1.8335261528105948
    DFT Exchange-Correlation Energy =      -0.6970314387417538
    Empirical Dispersion Energy =           0.0000000000000000
    VV10 Nonlocal Energy =                  0.0000000000000000
    Total Energy =                         -1.0566862265866057

  UHF NO Occupations:
  HONO-1 :    1 Ag 1.9995703
  HONO-0 :    1B1u 1.0000000
  LUNO+0 :    2 Ag 0.0004297
  LUNO+1 :    3 Ag 0.0000000
  LUNO+2 :    2B1u 0.0000000
  LUNO+3 :    3B1u 0.0000000

Computation Completed

Properties will be evaluated at   0.000000,   0.000000,   0.000000 [a0]

Properties computed using the B3LYP density matrix

 Multipole Moments:

 ------------------------------------------------------------------------------------
     Multipole            Electronic (a.u.)      Nuclear  (a.u.)        Total (a.u.)
 ------------------------------------------------------------------------------------

 L = 1.  Multiply by 2.5417464519 to convert [e a0] to [Debye]
 Dipole X            :          0.0000000            0.0000000            0.0000000
 Dipole Y            :          0.0000000            0.0000000            0.0000000
 Dipole Z            :          0.0000000            0.0000000            0.0000000
 Magnitude           :                                                    0.0000000

 L = 2.  Multiply by 1.3450342976 to convert [e a0^2] to [Debye ang]
 Quadrupole XX       :         -4.2584031            0.0000000           -4.2584031
 Quadrupole XY       :          0.0000000            0.0000000            0.0000000
 Quadrupole XZ       :          0.0000000            0.0000000            0.0000000
 Quadrupole YY       :         -4.2584031            0.0000000           -4.2584031
 Quadrupole YZ       :          0.0000000            0.0000000            0.0000000
 Quadrupole ZZ       :         -9.9878751            1.6233966           -8.3644785
 Traceless XX        :          1.9098240           -0.5411322            1.3686918
 Traceless YY        :          1.9098240           -0.5411322            1.3686918
 Traceless ZZ        :         -3.8196480            1.0822644           -2.7373836

 ------------------------------------------------------------------------------------
  ==> Computing MBIS Charges <==

  Electron Count from Grid (Expected Number):  3.00000 ( 3.00000)
  Difference:  0.00000

  MBIS Charges: (a.u.)
   Center  Symbol  Z      Pop.       Charge
      1       H    1    1.500000   -0.500000
      2       H    1    1.500000   -0.500000

  MBIS Dipoles: [e a0]
   Center  Symbol  Z        X           Y           Z
      1       H    1    0.000000   -0.000000    0.300275
      2       H    1   -0.000000    0.000000   -0.300275

  MBIS Quadrupoles: [e a0^2]
   Center  Symbol  Z      XX        XY        XZ        YY        YZ        ZZ
      1       H    1   -2.1292    0.0000   -0.0000   -2.1292    0.0000   -3.2353
      2       H    1   -2.1292    0.0000    0.0000   -2.1292    0.0000   -3.2353

  MBIS Octupoles: [e a0^3]
   Center  Symbol  Z      XXX       XXY       XXZ       XYY       XYZ       XZZ       YYY       YYZ       YZZ       ZZZ
      1       H    1    0.0000   -0.0000    0.7964    0.0000   -0.0000    0.0000    0.0000    0.7964    0.0000    1.5463
      2       H    1    0.0000    0.0000   -0.7964    0.0000    0.0000    0.0000    0.0000   -0.7964    0.0000   -1.5463

  MBIS Radial Moments:
   Center  Symbol  Z      [a0^2]      [a0^3]      [a0^4]
      1       H    1    7.493732   24.143527   90.238881
      2       H    1    7.493732   24.143527   90.238881

  MBIS Valence Widths: [a0]
   Center  Symbol  Z     Width
      1       H    1    0.637774
      2       H    1    0.637774

*** tstop() called on Mac.lan at Sun Aug 10 17:25:43 2025
Module time:
	user time   =       0.88 seconds =       0.01 minutes
	system time =       0.87 seconds =       0.01 minutes
	total time  =          0 seconds =       0.00 minutes
Total time:
	user time   =       1.93 seconds =       0.03 minutes
	system time =       3.06 seconds =       0.05 minutes
	total time  =          1 seconds =       0.02 minutes

    Psi4 stopped on: Sunday, 10 August 2025 05:25PM
    Psi4 wall time for execution: 0:00:00.82

*** Psi4 exiting successfully. Buy a developer a beer!
